/*--------------------------------*- C++ -*----------------------------------*\
  =========                 |
  \\      /  F ield         | OpenFOAM: The Open Source CFD Toolbox
   \\    /   O peration     | Website:  https://openfoam.org
    \\  /    A nd           | Version:  12
     \\/     M anipulation  |
\*---------------------------------------------------------------------------*/
/*   Windows 32 and 64 bit porting by blueCAPE: http://www.bluecape.com.pt   *\
|  Based on Windows porting (2.0.x v4) by Symscape: http://www.symscape.com   |
\*---------------------------------------------------------------------------*/
FoamFile
{
    format      ascii;
    class       IOPosition;
    location    "1/lagrangian/cloud";
    object      positions;
}
// * * * * * * * * * * * * * * * * * * * * * * * * * * * * * * * * * * * * * //

7171
(
(0.0344179 0.216537 0.303938 0.445107) 4 12 2
(0.242544 0.127927 0.0826794 0.54685) 9 104704 1
(0.0844672 0.470689 0.342383 0.102461) 14 44 2
(0.042885 0.160309 0.217411 0.579394) 19 59 1
(0.351855 0.0822461 0.429545 0.136354) 24 105154 1
(0.528656 0.361356 0.0692001 0.0407876) 28 102778 1
(0.340718 0.142759 0.256412 0.26011) 33 96 1
(0.106335 0.559772 0.210423 0.12347) 38 111 2
(0.0313667 0.821361 0.0257727 0.121499) 43 129 1
(0.405849 0.153817 0.124062 0.316272) 48 146 1
(0.0833217 0.254358 0.479653 0.182667) 52 157 2
(0.0210733 0.346577 0.209777 0.422573) 58 170 2
(0.286955 0.531896 0.123361 0.0577881) 62 37 2
(0.172154 0.31156 0.372124 0.144162) 67 104945 1
(0.168843 0.366664 0.35364 0.110853) 72 105095 1
(0.184959 0.095452 0.615366 0.104224) 76 227 2
(0.0365581 0.0242654 0.60497 0.334207) 81 243 2
(0.321227 0.0649402 0.0376407 0.576192) 86 257 2
(0.0627494 0.255886 0.0888697 0.592495) 91 269 1
(0.128968 0.0477475 0.0338446 0.78944) 96 287 1
(0.319502 0.533582 0.0182175 0.128699) 100 104436 1
(0.298601 0.43035 0.0166902 0.254358) 105 104586 1
(0.305111 0.21542 0.286671 0.192799) 110 328 1
(0.316081 0.295707 0.0524227 0.335789) 115 345 1
(0.266503 0.266928 0.299544 0.167026) 120 358 1
(0.0434064 0.0291936 0.641822 0.285578) 124 371 2
(0.495241 0.189956 0.191396 0.123407) 129 237 1
(0.134266 0.139055 0.331253 0.395426) 134 252 2
(0.0528667 0.201205 0.0119951 0.733933) 139 417 1
(0.417198 0.174869 0.060616 0.347317) 144 105756 2
(0.342076 0.0156922 0.157322 0.484911) 148 442 2
(0.774729 0.0623264 0.147187 0.0157584) 153 457 2
(0.575733 0.0825516 0.160248 0.181467) 158 104677 1
(0.113718 0.467189 0.0197795 0.399313) 163 483 1
(0.0675503 0.473209 0.342959 0.116282) 168 104977 1
(0.223427 0.583044 0.174933 0.0185955) 172 105097 1
(0.206898 0.341658 0.0567759 0.394668) 177 528 2
(0.499988 0.143885 0.157536 0.198591) 182 105397 2
(0.147045 0.632765 0.19927 0.0209205) 187 555 2
(0.572922 0.390519 0.0129925 0.0235659) 192 570 1
(0.0937105 0.462592 0.154163 0.289535) 196 582 1
(0.301 0.299478 0.0471462 0.352376) 201 596 1
(0.100532 0.0143853 0.524241 0.360842) 206 466 2
(0.0713029 0.292793 0.210715 0.42519) 212 629 1
(0.138631 0.267401 0.224687 0.369281) 217 644 2
(0.773895 0.00889327 0.0180634 0.199148) 220 508 2
(0.617213 0.239973 0.108072 0.0347421) 225 105188 2
(0.33619 0.0427613 0.373897 0.247152) 230 686 1
(0.0820131 0.169383 0.412169 0.336435) 235 698 2
(0.478439 0.181149 0.198998 0.141414) 240 717 1
(0.26188 0.154926 0.201705 0.38149) 244 730 1
(0.0529051 0.281693 0.52324 0.142162) 249 744 1
(0.370886 0.340055 0.157805 0.131254) 254 757 1
(0.0619524 0.301749 0.105501 0.530798) 260 772 2
(0.122311 0.639472 0.214647 0.023571) 264 787 1
(0.170649 0.158776 0.383906 0.286668) 268 801 2
(0.233303 0.00225664 0.579393 0.185047) 273 816 2
(0.400967 0.143884 0.137342 0.317807) 278 831 2
(0.214253 0.167562 0.384824 0.23336) 283 105429 1
(0.0770689 0.212616 0.703906 0.00640983) 288 711 1
(0.836216 0.0797607 0.0741259 0.00989703) 292 723 2
(0.203835 0.61739 0.0662495 0.112525) 297 883 2
(0.133721 0.0361945 0.567221 0.262864) 302 104500 2
(0.00198606 0.0653022 0.426165 0.506547) 307 104650 2
(0.231302 0.0824187 0.150007 0.536273) 312 932 2
(0.443709 0.124395 0.228527 0.203368) 316 104920 1
(0.0855474 0.468921 0.41703 0.0285011) 321 809 2
(0.205955 0.34004 0.165864 0.288141) 326 972 2
(0.603491 0.124585 0.222761 0.049163) 331 989 2
(0.0124532 0.266746 0.209119 0.511682) 336 1003 1
(0.0192452 0.443893 0.237173 0.299689) 340 1015 2
(0.0169085 0.250426 0.307724 0.424942) 345 105790 2
(0.654022 0.065683 0.0394906 0.240804) 350 106647 2
(0.275044 0.0766107 0.0349022 0.613444) 355 104591 1
(0.239826 0.228482 0.26218 0.269512) 360 1073 1
(0.193573 0.201322 0.180636 0.424469) 364 937 1
(0.0040219 0.371774 0.306991 0.317213) 419 1101 1
(0.30851 0.00437394 0.307862 0.379255) 374 1117 1
(0.19982 0.460182 0.00434581 0.335653) 379 1132 1
(0.526959 0.0875828 0.331416 0.0540425) 384 105461 2
(0.231241 0.563454 0.177389 0.0279163) 388 1154 1
(0.267289 0.219741 0.176501 0.336469) 393 1174 2
(0.262862 0.190583 0.0439047 0.50265) 398 105881 2
(0.0429769 0.0580544 0.136751 0.762218) 403 104532 2
(0.167546 0.169294 0.28267 0.38049) 408 1218 2
(0.379473 0.0537353 0.314793 0.251998) 412 1228 2
(0.0732332 0.571962 0.140602 0.214203) 417 1244 2
(0.493884 0.222019 0.205901 0.0781962) 422 1258 1
(0.116819 0.435767 0.433942 0.0134719) 427 105252 2
(0.383363 0.128149 0.437221 0.0512665) 432 1288 1
(0.452372 0.108382 0.210011 0.229235) 436 1301 2
(0.0742606 0.0432913 0.816562 0.0658864) 441 1315 1
(0.0537176 0.589429 0.061026 0.295828) 446 1182 1
(0.117033 0.527107 0.257566 0.0982936) 452 1344 1
(0.0335774 0.139639 0.233468 0.593316) 456 1359 2
(0.275485 0.035355 0.230091 0.459069) 460 1368 1
(0.377785 0.174216 0.372045 0.075954) 465 1386 2
(0.522345 0.378814 0.0867859 0.012055) 470 1398 2
(0.0420442 0.581437 0.311216 0.0653035) 475 1418 2
(0.0190049 0.217654 0.484832 0.27851) 481 1431 2
(0.336732 0.156914 0.411143 0.0952111) 484 1443 1
(0.163585 0.0141417 0.240661 0.581613) 489 105613 2
(0.503259 0.268477 0.0828135 0.145451) 494 1473 2
(0.188956 0.143878 0.278184 0.388981) 499 1488 2
(0.0527654 0.263966 0.675335 0.00793332) 504 1504 2
(0.190735 0.259906 0.381083 0.168276) 508 1515 2
(0.334878 0.292044 0.232958 0.14012) 513 1529 2
(0.276587 0.13439 0.0450562 0.543967) 518 1541 1
(0.250924 0.28473 0.309975 0.15437) 523 1561 2
(0.266729 0.511516 0.104778 0.116977) 528 1571 2
(0.425751 0.219545 0.263433 0.0912702) 532 1583 1
(0.171948 0.17139 0.462856 0.193805) 537 1453 2
(0.225686 0.593248 0.0605039 0.120562) 542 1468 2
(0.280143 0.413599 0.0633276 0.242929) 547 105854 1
(0.657107 0.152656 0.0945223 0.0957147) 552 1646 2
(0.0205608 0.14053 0.0727634 0.766145) 606 1658 2
(0.164694 0.375033 0.266827 0.193445) 561 1524 1
(0.143401 0.242767 0.0997186 0.514114) 566 1688 1
(0.178834 0.48293 0.177337 0.160899) 571 1702 2
(0.130728 0.525399 0.314072 0.0298009) 576 1717 1
(0.0709051 0.223808 0.505678 0.199609) 580 1729 1
(0.349894 0.348884 0.0461295 0.255092) 585 1741 2
(0.043516 0.388074 0.207888 0.360522) 590 1759 1
(0.222928 0.17838 0.212974 0.385718) 595 1771 2
(0.161022 0.17037 0.470773 0.197835) 600 1788 2
(0.595815 0.162656 0.0336052 0.207924) 604 1800 2
(0.127752 0.348252 0.120913 0.403083) 609 1816 2
(0.802887 0.0562719 0.0685074 0.0723338) 614 104866 1
(0.0662744 0.073744 0.699978 0.160004) 620 1845 2
(0.307406 0.0731864 0.556158 0.0632501) 624 1861 2
(0.195639 0.328287 0.30453 0.171545) 628 1874 1
(0.457212 0.48121 0.0407209 0.0208564) 633 1884 2
(0.266059 0.435521 0.180276 0.118144) 638 1903 2
(0.203194 0.65086 0.139177 0.00676844) 643 1769 1
(0.408961 0.194592 0.0751879 0.321259) 648 105886 2
(0.369863 0.383575 0.120473 0.126089) 652 1945 2
(0.124818 0.36683 0.21184 0.296512) 658 1958 2
(0.347031 0.0440493 0.168108 0.440811) 662 1975 1
(0.087412 0.846226 0.0509464 0.0154154) 667 1985 2
(0.654092 0.130439 0.156538 0.0589314) 672 2005 1
(0.116801 0.375655 0.357809 0.149735) 676 2017 1
(0.165337 0.0825696 0.501076 0.251018) 681 1882 2
(0.0993511 0.152868 0.652873 0.0949076) 686 2047 2
(0.847438 0.115904 0.00677786 0.0298804) 691 2061 1
(0.177992 0.119056 0.13237 0.570582) 696 2072 1
(0.377547 0.00515393 0.111075 0.506224) 700 2086 1
(0.303903 0.169153 0.080249 0.446695) 705 2102 2
(0.777627 0.0954612 0.101708 0.0252038) 710 1968 1
(0.222531 0.298693 0.0332536 0.445523) 715 2133 1
(0.11219 0.191812 0.464458 0.23154) 720 2146 2
(0.147651 0.216201 0.567329 0.0688186) 724 105168 1
(0.0838837 0.343995 0.129405 0.442716) 729 2173 2
(0.151714 0.204496 0.302451 0.341339) 734 2040 2
(0.577328 0.196738 0.162651 0.0632833) 739 2200 2
(0.332886 0.126364 0.341182 0.199567) 744 2220 1
(0.0290748 0.0159383 0.454999 0.499988) 748 105888 1
(0.133023 0.175722 0.300012 0.391242) 753 2245 2
(0.0999775 0.0753547 0.475395 0.349272) 758 2260 2
(0.0754358 0.101242 0.739604 0.0837186) 763 2276 2
(0.088614 0.418426 0.418979 0.0739807) 768 2141 2
(0.153535 0.507401 0.170012 0.169052) 772 2153 1
(0.339568 0.504435 0.0691483 0.0868493) 777 2313 1
(0.107087 0.338318 0.111219 0.443375) 782 2331 2
(0.315598 0.141494 0.346324 0.196584) 787 2348 2
(0.309708 0.391208 0.195388 0.103697) 792 2362 1
(0.375714 0.127304 0.233598 0.263384) 796 2375 1
(0.280722 0.0202821 0.123657 0.575339) 801 104480 1
(0.0532567 0.141299 0.0363105 0.769133) 806 2403 2
(0.157295 0.211446 0.0273038 0.603955) 811 2417 1
(0.451554 0.0816831 0.392502 0.0742602) 816 2429 2
(0.15245 0.00440845 0.0985451 0.744597) 820 2446 1
(0.0829628 0.112887 0.134228 0.669922) 825 2459 1
(0.493861 0.33309 0.128202 0.0448475) 830 2471 2
(0.176243 0.00819144 0.077095 0.73847) 835 2489 1
(0.147531 0.0299534 0.619247 0.203269) 840 2356 2
(0.302746 0.0513072 0.0207466 0.6252) 844 2517 1
(0.221366 0.00837456 0.377428 0.392832) 849 2382 1
(0.0123805 0.332276 0.602583 0.05276) 854 104571 1
(0.0401693 0.510035 0.403603 0.0461929) 859 2562 1
(0.0312949 0.0576259 0.180871 0.730208) 864 104871 2
(0.139254 0.595339 0.195586 0.0698212) 868 2439 2
(0.0186142 0.20309 0.587649 0.190647) 873 2602 1
(0.00378859 0.0416327 0.535541 0.419038) 878 2619 2
(0.172239 0.150185 0.5793 0.0982768) 883 2633 2
(0.516392 0.1509 0.201944 0.130764) 888 105591 1
(0.225321 0.416743 0.339036 0.0188998) 892 2656 2
(0.531805 0.0408958 0.32905 0.0982485) 897 2675 1
(0.138534 0.293794 0.40001 0.167662) 902 2690 1
(0.301654 0.161535 0.00908229 0.527728) 907 2703 2
(0.0220159 0.811316 0.00933106 0.157337) 913 2718 2
(0.267877 0.217803 0.393832 0.120488) 916 2727 2
(0.0969981 0.00757276 0.0426686 0.852761) 922 2745 2
(0.394493 0.385056 0.20208 0.0183717) 926 105232 1
(0.159396 0.0397322 0.266504 0.534368) 931 2776 1
(0.231421 0.161918 0.237904 0.368757) 936 2792 1
(0.250919 0.0662625 0.220666 0.462152) 940 2802 1
(0.82054 0.0400375 0.0591224 0.0803001) 945 2814 2
(0.116699 0.165559 0.694547 0.0231951) 950 2832 2
(0.331608 0.453327 0.0702302 0.144835) 955 104603 1
(0.261072 0.377579 0.176738 0.184611) 960 2713 2
(0.0984652 0.41015 0.234424 0.256961) 964 2870 2
(0.494822 0.101195 0.237452 0.166531) 969 2888 2
(0.527938 0.027778 0.210465 0.233819) 974 2755 1
(0.075561 0.517245 0.263488 0.143706) 979 2770 1
(0.21647 0.306586 0.165198 0.311746) 984 2785 1
(0.131276 0.653059 0.116413 0.0992522) 988 2942 1
(0.130645 0.0353335 0.479935 0.354087) 993 2957 2
(0.187229 0.195895 0.483887 0.132988) 998 2977 1
(0.198461 0.438089 0.263784 0.0996669) 1003 2841 2
(0.0291543 0.382512 0.467091 0.121243) 1008 104694 2
(0.292629 0.0021426 0.403334 0.301894) 1012 3017 2
(0.625967 0.30765 0.0373036 0.0290794) 1017 3031 1
(0.278929 0.239481 0.0350652 0.446525) 1022 2898 1
(0.510158 0.302796 0.164501 0.0225455) 1027 3058 2
(0.201272 0.330303 0.347697 0.120728) 1032 105414 1
(0.183426 0.0318868 0.156221 0.628466) 1036 3089 1
(0.0121728 0.862061 0.00284508 0.122921) 1041 2955 1
(0.0230841 0.567703 0.22781 0.181403) 1046 3118 1
(0.710336 0.0288852 0.231506 0.0292728) 1051 104485 2
(0.563169 0.000908542 0.426959 0.00896383) 1056 3148 2
(0.0806757 0.215343 0.670421 0.0335609) 1060 3159 2
(0.0304082 0.15538 0.385696 0.428516) 1065 3174 2
(0.0695136 0.175626 0.269174 0.485686) 1070 3190 2
(0.345526 0.10731 0.424575 0.122588) 1075 3206 1
(0.0485109 0.73754 0.181298 0.0326513) 1080 3219 2
(0.0123559 0.166861 0.644361 0.176422) 1084 105475 1
(0.497761 0.0838613 0.0410785 0.377299) 1089 3248 2
(0.138481 0.16845 0.68052 0.0125501) 1094 3262 2
(0.201039 0.178608 0.0729207 0.547433) 1099 3127 1
(0.0647134 0.0137941 0.46905 0.452443) 1104 3290 2
(0.0865394 0.518047 0.137805 0.257609) 1108 104696 1
(0.380662 0.027119 0.520162 0.0720571) 1113 3169 1
(0.395905 0.172062 0.192715 0.239317) 1118 3334 1
(0.0212196 0.0643278 0.498513 0.41594) 1123 3348 1
(0.0435625 0.146232 0.20697 0.603235) 1128 3363 1
(0.434413 0.236167 0.217872 0.111548) 1132 3376 2
(0.444398 0.274885 0.098593 0.182124) 1137 3241 1
(0.609913 0.0969456 0.124458 0.168684) 1142 3406 1
(0.0951491 0.806815 0.080242 0.0177939) 1147 3416 2
(0.0101025 0.138172 0.779252 0.0724738) 1152 3434 1
(0.497141 0.230268 0.186318 0.0862733) 1156 3445 2
(0.472366 0.244325 0.230711 0.0525981) 1161 3460 2
(0.191723 0.212213 0.076103 0.519961) 1166 3327 1
(0.00145916 0.169687 0.524931 0.303923) 2671 3492 2
(0.0548889 0.277349 0.29715 0.370612) 1176 3506 1
(0.40113 0.213223 0.296549 0.0890982) 1180 3369 1
(0.407527 0.0847697 0.392096 0.115607) 1185 3532 2
(0.127262 0.326112 0.423009 0.123617) 1190 105657 1
(0.282115 0.0269046 0.132105 0.558876) 1195 3564 1
(0.00388248 0.03271 0.756246 0.207161) 1200 3576 1
(0.221075 0.618289 0.114921 0.0457148) 1204 3590 1
(0.696984 0.0385058 0.14957 0.11494) 1209 3604 1
(0.0043945 0.0542799 0.401065 0.540261) 1215 3618 2
(0.0754416 0.0169117 0.849297 0.0583497) 1219 3633 1
(0.405654 0.0494092 0.343346 0.20159) 1224 3648 2
(0.345129 0.34329 0.0990423 0.212539) 1228 3512 1
(0.323386 0.00346645 0.587163 0.085985) 1233 3672 1
(0.487255 0.360128 0.10809 0.0445271) 1238 3691 2
(0.155149 0.229739 0.0776863 0.537426) 1243 3707 1
(0.42665 0.0269619 0.116013 0.430375) 1248 105898 1
(0.0235659 0.185458 0.312462 0.478515) 1253 3731 2
(0.0388898 0.544551 0.405097 0.0114624) 1257 3743 1
(0.458391 0.30357 0.194308 0.0437308) 1262 3763 1
(0.152868 0.108711 0.114459 0.623962) 1267 3773 2
(0.0348198 0.270598 0.647568 0.0470144) 1272 105119 2
(0.288252 0.315517 0.352647 0.0435845) 1276 3805 2
(0.101231 0.044456 0.833027 0.0212866) 1281 3815 1
(0.206134 0.183137 0.402933 0.207797) 1286 3834 1
(0.324535 0.5429 0.0638772 0.0686876) 1291 3849 1
(0.0919291 0.0385951 0.498346 0.37113) 1296 3863 1
(0.5288 0.0941109 0.305558 0.0715317) 1300 104460 1
(0.432539 0.182734 0.0507404 0.333987) 1305 104610 1
(0.0985049 0.0947259 0.156686 0.650083) 1310 3904 2
(0.151856 0.0336859 0.0949656 0.719492) 1315 3919 2
(0.346476 0.0378262 0.149436 0.466262) 1320 105060 2
(0.139188 0.193456 0.375558 0.291799) 1324 105180 1
(0.142081 0.14599 0.0743796 0.637549) 1329 105330 1
(0.078916 0.179516 0.644507 0.0970607) 1334 3977 1
(0.451774 0.387032 0.130639 0.0305555) 1339 3992 1
(0.462501 0.107855 0.313422 0.116222) 1344 4007 2
(0.0268659 0.654868 0.25864 0.0596266) 1348 4015 2
(0.163418 0.171629 0.337547 0.327406) 1353 4029 2
(0.404513 0.157063 0.403478 0.0349463) 1358 4049 1
(0.0582827 0.317125 0.435081 0.189512) 1363 4062 2
(0.339642 0.298082 0.215726 0.146549) 1368 105001 1
(0.145865 0.331387 0.236277 0.286471) 1372 4089 1
(0.0683654 0.558671 0.245668 0.127295) 1377 4104 2
(0.239946 0.209453 0.412388 0.138212) 1382 4116 1
(0.212448 0.578418 0.0901109 0.119023) 1387 4136 1
(0.21902 0.0741275 0.272217 0.434636) 1392 4149 2
(0.14137 0.203467 0.633472 0.0216916) 1396 4162 2
(0.385945 0.0706475 0.410914 0.132493) 1401 104492 1
(0.35677 0.00712661 0.183443 0.452661) 1406 4191 1
(0.0818346 0.117622 0.0557943 0.744749) 1411 104792 1
(0.0421839 0.0372512 0.454673 0.465892) 1416 104942 2
(0.335815 0.159123 0.299044 0.206018) 1420 4233 1
(0.04657 0.081941 0.352034 0.519455) 1425 105212 2
(0.32149 0.0006618 0.45367 0.224178) 1430 4259 2
(0.449298 0.345447 0.189623 0.0156321) 1435 4279 2
(0.0097723 0.408687 0.409258 0.172283) 1440 4292 2
(0.0180341 0.0117241 0.566045 0.404197) 1444 4305 1
(0.47721 0.220769 0.194776 0.107245) 1449 4316 1
(0.316664 0.0212597 0.180586 0.48149) 1454 104583 2
(0.149855 0.200992 0.159625 0.489528) 1459 104733 2
(0.190216 0.342846 0.0352535 0.431684) 1464 4215 1
(0.2283 0.0503549 0.710925 0.0104205) 1468 4358 2
(0.0976818 0.375643 0.0982908 0.428385) 1473 105153 1
(0.00208233 0.332355 0.286825 0.378737) 1478 105303 1
(0.646505 0.0915318 0.10557 0.156393) 1483 4388 1
(0.539227 0.100027 0.356262 0.00448386) 1488 4395 1
(0.23031 0.308268 0.151822 0.3096) 1492 4403 1
(0.0420561 0.000617535 0.522898 0.434429) 1497 4314 1
(0.383279 0.246052 0.283799 0.0868697) 1502 4423 1
(0.391836 0.255586 0.165738 0.18684) 1507 4438 2
(0.116484 0.00141624 0.315772 0.566328) 1512 38 2
(0.210017 0.444366 0.155432 0.190185) 1516 50 1
(0.621509 0.0140026 0.126157 0.238331) 1521 4480 1
(0.0151513 0.222042 0.531276 0.231531) 1526 102733 2
(0.354544 0.00617246 0.36623 0.273053) 1531 4515 2
(0.291028 0.525406 0.139665 0.0439016) 1536 4530 2
(0.158084 0.277436 0.0837972 0.480683) 1540 4541 2
(0.480519 0.271473 0.0567311 0.191278) 1545 4556 1
(0.673186 0.0106033 0.134054 0.182157) 1550 151 1
(0.0158649 0.0279357 0.392641 0.563558) 1555 4585 1
(0.106679 0.0382843 0.639755 0.215282) 1560 4451 2
(0.00840532 0.566833 0.163984 0.260778) 1564 193 1
(0.0177118 0.261917 0.38014 0.340232) 1569 4627 1
(0.0288962 0.036234 0.238853 0.696017) 1574 223 1
(0.197916 0.417232 0.218567 0.166285) 1579 4653 2
(0.231619 0.35456 0.314893 0.0989284) 1584 4668 2
(0.187672 0.0199552 0.179241 0.613131) 1588 4685 1
(0.299104 0.0365258 0.267843 0.396528) 1593 4699 1
(0.144121 0.14779 0.12136 0.58673) 1598 4710 2
(0.0428236 0.174099 0.256567 0.52651) 1603 4729 2
(0.213776 0.383096 0.13772 0.265408) 1608 4742 1
(0.0114883 0.0418736 0.0540896 0.892549) 1613 4754 2
(0.048986 0.0450182 0.0186273 0.887368) 1617 4771 1
(0.246756 0.164349 0.00726363 0.581631) 1622 366 1
(0.366093 0.102646 0.220462 0.310799) 1627 4800 1
(0.450951 0.0665117 0.117729 0.364808) 1632 4811 1
(0.145363 0.180275 0.229372 0.44499) 1636 4827 2
(0.208704 0.566886 0.017766 0.206643) 1641 4843 1
(0.432284 0.117682 0.259339 0.190695) 1646 4858 1
(0.0691579 0.126652 0.600152 0.204039) 1651 452 1
(0.170421 0.324485 0.434378 0.0707158) 1657 4885 2
(0.0902993 0.518437 0.0845742 0.306689) 1661 4752 1
(0.0826046 0.262658 0.372453 0.282285) 1666 4912 2
(0.246214 0.10294 0.367203 0.283643) 1670 4927 2
(0.1762 0.138706 0.492713 0.192381) 1675 4794 1
(0.0091292 0.214119 0.574938 0.201814) 1681 4957 1
(0.206831 0.259749 0.252968 0.280452) 1684 4970 2
(0.303949 0.247954 0.380024 0.0680728) 1689 4981 1
(0.0691525 0.247448 0.465424 0.217976) 1694 4996 1
(0.302156 0.347923 0.266986 0.0829351) 1699 5011 2
(0.0690428 0.0955469 0.0297325 0.805678) 1704 5028 1
(0.21162 0.201399 0.309581 0.2774) 1708 5041 1
(0.365108 0.328208 0.0596044 0.247079) 1713 5056 2
(0.222034 0.224604 0.47335 0.0800113) 1718 5070 2
(0.358589 0.083431 0.55789 8.99344e-05) 1723 5082 1
(0.214715 0.222444 0.13043 0.432411) 1728 5101 1
(0.0351256 0.0400384 0.411613 0.513223) 1732 5114 1
(0.13762 0.220828 0.503408 0.138143) 1737 5124 1
(0.030608 0.047376 0.871571 0.050445) 1742 5142 1
(0.475835 0.368472 0.15067 0.00502246) 1747 5159 2
(0.254553 0.528151 0.0608798 0.156416) 1753 5026 1
(0.280523 0.233109 0.0457153 0.440653) 1756 5185 1
(0.082946 0.153549 0.538502 0.225003) 1761 5199 1
(0.0578692 0.0786958 0.57633 0.287105) 1766 5065 1
(0.0725747 0.623735 0.0486762 0.255014) 1771 5080 2
(0.0132176 0.515179 0.295189 0.176415) 1776 825 2
(0.0752901 0.277415 0.460894 0.186401) 1780 837 1
(0.170537 0.243902 0.445235 0.140326) 1785 5122 2
(0.0916448 0.125847 0.541599 0.240909) 1790 5137 2
(0.0433424 0.71834 0.0333395 0.204978) 1795 5300 1
(0.187679 0.0807413 0.0599964 0.671583) 1800 5315 1
(0.0210722 0.33174 0.546321 0.100867) 1804 5326 1
(0.798763 0.0908761 0.0694703 0.0408904) 1809 5343 1
(0.0840824 0.227844 0.283512 0.404562) 1814 5358 2
(0.0426391 0.315225 0.631973 0.0101636) 1819 953 1
(0.00480145 0.748561 0.0220334 0.224604) 1824 5387 1
(0.0963477 0.795196 0.0714152 0.0370415) 1828 5399 1
(0.259274 0.465027 0.183081 0.0926179) 1833 5414 2
(0.508725 0.0292856 0.0644563 0.397533) 1838 5425 1
(0.369845 0.0867187 0.248235 0.295201) 1843 5295 1
(0.315761 0.330626 0.152582 0.201031) 1848 5455 1
(0.494941 0.149436 0.0608784 0.294744) 1852 5470 1
(0.225833 0.0205812 0.194562 0.559023) 1857 5486 1
(0.179324 0.57772 0.0719792 0.170977) 1862 1081 1
(0.153099 0.13865 0.306751 0.401499) 1867 5515 1
(0.154698 0.137287 0.537691 0.170324) 1873 5529 2
(0.282093 0.240098 0.084613 0.393195) 1876 5542 1
(0.280722 0.0339022 0.147589 0.537787) 1881 5556 1
(0.00562724 0.249531 0.474137 0.270704) 1936 5572 2
(0.670506 0.17336 0.119056 0.037077) 1891 1168 2
(0.0693134 0.0647468 0.0942591 0.771681) 1896 5601 1
(0.182815 0.397363 0.249512 0.17031) 1901 5616 1
(0.435758 0.0891819 0.262537 0.212523) 1905 5479 1
(0.055823 0.440644 0.0884463 0.415087) 1910 1224 1
(0.132873 0.188235 0.558045 0.120847) 1915 5509 1
(0.193262 0.0821624 0.0755998 0.648975) 1920 5674 2
(0.0435449 0.0690501 0.784269 0.103136) 1924 1266 2
(0.316908 0.131137 0.409305 0.14265) 1929 5700 1
(0.179923 0.201343 0.0961911 0.522543) 1934 5711 1
(0.053379 0.547191 0.11178 0.28765) 1939 5581 1
(0.209383 0.273135 0.430823 0.0866588) 1944 5596 1
(0.295353 0.0565727 0.0411068 0.606967) 1948 5756 1
(0.2292 0.0965501 0.665305 0.00894509) 2003 5771 1
(0.672868 0.235538 0.0862749 0.00531847) 1958 5785 2
(0.442094 0.0521932 0.357791 0.147922) 1963 5800 2
(0.331382 0.12027 0.052456 0.495891) 1968 5817 2
(0.52125 0.147251 0.0437238 0.287775) 1972 5827 1
(0.236097 0.102774 0.358525 0.302603) 1977 5842 1
(0.138507 0.218099 0.313893 0.329501) 1982 5709 2
(0.277862 0.162313 0.42278 0.137045) 1987 5873 2
(0.0299949 0.689443 0.267302 0.0132602) 1992 5739 1
(0.203211 0.326498 0.164887 0.305404) 1996 1481 1
(0.242316 0.239114 0.339817 0.178754) 2001 1495 1
(0.132656 0.102128 0.587088 0.178128) 2056 5929 1
(0.276437 0.441225 0.2544 0.0279385) 2011 1525 2
(0.0652744 0.0269145 0.81773 0.0900807) 2016 5960 2
(0.253833 0.303693 0.125955 0.316519) 2020 5970 1
(0.0845847 0.572357 0.200433 0.142625) 2025 5837 2
(0.418783 0.310574 0.261212 0.00943146) 2030 5852 2
(0.0124023 0.495088 0.00233374 0.490176) 2035 6017 1
(0.665606 0.218715 0.0822411 0.0334373) 2040 6027 2
(0.475224 0.0488558 0.405551 0.0703692) 2044 6044 1
(0.0546396 0.134763 0.61272 0.197878) 2049 6058 2
(0.200098 0.0373262 0.423856 0.33872) 2055 6071 2
(0.00539889 0.170277 0.287484 0.53684) 2059 1668 1
(0.692976 0.115925 0.120941 0.0701579) 2064 1683 2
(0.0580265 0.0615773 0.204413 0.675983) 2069 6113 1
(0.277856 0.171076 0.0721743 0.478894) 2073 5980 2
(0.208528 0.336704 0.00681495 0.447954) 2078 1725 2
(0.0294158 0.312502 0.468283 0.189799) 2084 6158 1
(0.280438 0.356409 0.32424 0.0389134) 2088 6173 2
(0.266528 0.273519 0.322146 0.137808) 2092 6182 1
(0.341594 0.0836528 0.507275 0.0674774) 2097 6200 2
(0.0609257 0.608782 0.188878 0.141415) 2152 6215 2
(0.417195 0.013623 0.508001 0.061181) 2107 6226 1
(0.423864 0.0415693 0.225978 0.308589) 2112 6096 1
(0.540213 0.0493192 0.249288 0.16118) 2116 6258 2
(0.116043 0.367675 0.309215 0.207067) 2122 6271 1
(0.376143 0.259173 0.225177 0.139508) 2126 6286 2
(0.688111 0.0362428 0.0481086 0.227537) 2131 6303 1
(0.0875048 0.442117 0.0174713 0.452907) 2136 1898 1
(0.346159 0.169475 0.318284 0.166081) 2140 6325 2
(0.120387 0.21991 0.262968 0.396735) 2145 1925 1
(0.642068 0.228953 0.122942 0.00603792) 2150 6359 1
(0.0803515 0.430478 0.0630343 0.426136) 2155 6374 1
(0.0649206 0.605171 0.074952 0.254957) 2161 6392 2
(0.460813 0.0502227 0.477092 0.0118728) 2164 6399 2
(0.589244 0.140748 0.0747361 0.195271) 2169 6411 1
(0.0350537 0.0709547 0.442654 0.451338) 2174 2011 2
(0.605378 0.0396388 0.323418 0.0315646) 2179 6446 1
(0.490145 0.238439 0.00653045 0.264886) 2184 6460 1
(0.513275 0.204103 0.00935458 0.273267) 2188 6468 2
(0.493666 0.0575228 0.231109 0.217702) 2193 2068 1
(0.0669503 0.20122 0.502691 0.229139) 2198 6503 2
(0.134075 0.0103039 0.735423 0.120198) 2204 6515 1
(0.162191 0.0577082 0.544608 0.235492) 2208 2112 2
(0.0681092 0.161307 0.246217 0.524367) 2212 6542 2
(0.582458 0.136449 0.0733602 0.207732) 2217 2139 1
(0.307826 0.505881 0.13787 0.0484239) 2222 6569 1
(0.252079 0.427582 0.248025 0.0723138) 2227 6588 1
(0.0399867 0.425696 0.463999 0.0703186) 2232 6604 1
(0.70753 0.0338874 0.200743 0.0578402) 2236 6615 2
(0.121021 0.0465659 0.626801 0.205612) 2241 6629 1
(0.376555 0.112575 0.383249 0.127622) 2246 6645 2
(0.0923359 0.431152 0.131228 0.345285) 2251 2240 2
(0.647861 0.00261059 0.343339 0.00618941) 2256 6670 1
(0.619215 0.107097 0.173444 0.100245) 2260 6537 1
(0.147765 0.0615096 0.0974498 0.693275) 2265 2282 2
(0.197422 0.278849 0.461094 0.0626353) 2270 2297 2
(0.367742 0.053644 0.460971 0.117643) 2275 6732 2
(0.392665 0.0920697 0.0480206 0.467244) 2280 6747 2
(0.0760745 0.205603 0.620737 0.0975852) 2284 6759 1
(0.459312 0.456525 0.0200673 0.0640953) 2289 6773 1
(0.428463 0.0203948 0.378715 0.172427) 2294 2369 1
(0.057662 0.585313 0.116808 0.240217) 2299 6799 1
(0.302612 0.415908 0.189361 0.0921194) 2304 6817 2
(0.120343 0.235508 0.34159 0.302559) 2308 6830 2
(0.0227516 0.224522 0.304831 0.447896) 2363 6844 1
(0.0131599 0.767104 0.133816 0.0859202) 2318 2440 2
(0.180139 0.104039 0.553646 0.162176) 2323 6870 2
(0.156352 0.136314 0.5047 0.202634) 2328 6888 2
(0.124551 0.283794 0.320651 0.271003) 2332 6752 1
(0.588483 0.127349 0.0400055 0.244163) 2337 6767 2
(0.0489668 0.240606 0.568025 0.142402) 2342 2512 1
(0.434998 0.397062 0.039076 0.128863) 2347 6945 1
(0.350713 0.053529 0.492344 0.103414) 2352 2541 2
(0.0942848 0.0203589 0.221276 0.66408) 2356 6972 2
(0.183232 0.0357997 0.401879 0.379089) 2361 6988 2
(0.554049 0.326237 0.0809971 0.0387173) 2366 6998 1
(0.149523 0.191253 0.0231308 0.636093) 2371 6868 2
(0.0686075 0.0303072 0.776476 0.124609) 2376 2613 2
(0.611142 0.0802352 0.125887 0.182736) 2380 7045 1
(0.00814327 0.224228 0.570889 0.19674) 3885 7060 2
(0.165976 0.201449 0.238816 0.393759) 2390 2655 1
(0.371379 0.312807 0.135195 0.180619) 2395 7088 1
(0.218147 0.0192398 0.0271666 0.735446) 2400 6954 2
(0.482269 0.223054 0.0282331 0.266444) 2404 7115 1
(0.0197984 0.234934 0.172798 0.572469) 2409 7130 2
(0.631876 0.0793537 0.277862 0.0109078) 2414 7146 1
(0.305959 0.00603959 0.0819904 0.606011) 2419 7161 2
(0.228461 0.0364033 0.71848 0.016656) 2424 7174 1
(0.169346 0.206677 0.0193791 0.604598) 2428 7187 2
(0.148407 0.303464 0.457862 0.0902676) 2433 7201 2
(0.0472886 0.177504 0.180154 0.595054) 2438 2798 2
(0.335501 0.146289 0.342289 0.175921) 2443 7083 1
(0.28968 0.0279151 0.559972 0.122432) 2448 7248 2
(0.445808 0.153257 0.275618 0.125317) 2452 7109 1
(0.0787336 0.0600155 0.739603 0.121648) 2507 7273 1
(0.441953 0.168259 0.217793 0.171996) 2462 2869 1
(0.0593249 0.191181 0.421543 0.327951) 2467 7303 1
(0.26113 0.0983056 0.531963 0.108601) 2472 7169 1
(0.365905 0.254034 0.245831 0.134229) 2476 7329 2
(0.0169997 0.0134657 0.200879 0.768655) 2481 2926 1
(0.309364 0.0813448 0.00753588 0.601755) 2486 7356 1
(0.145425 0.226266 0.355235 0.273074) 2491 7371 2
(0.153554 0.51483 0.00350423 0.328112) 2496 7386 1
(0.312237 0.132724 0.137041 0.417998) 2500 7252 2
(0.523077 0.409121 0.0520541 0.0157484) 2505 7416 1
(0.40513 0.089529 0.487093 0.0182479) 2510 7282 1
(0.374035 0.156644 0.130996 0.338325) 2515 7442 2
(0.580505 0.158225 0.200819 0.0604515) 2520 7462 2
(0.649959 0.187778 0.102417 0.0598466) 2524 7469 2
(0.0949508 0.113817 0.238419 0.552813) 2529 7488 1
(0.163136 0.044584 0.721704 0.070576) 2534 7503 1
(0.13529 0.0245408 0.163294 0.676875) 2539 7369 2
(0.485422 0.0198034 0.482434 0.0123403) 2544 7534 1
(0.188597 0.126478 0.443823 0.241102) 2548 7541 1
(0.00641942 0.481632 0.0619165 0.450032) 2603 7559 1
(0.129635 0.10919 0.593674 0.167501) 2558 3155 1
(0.61076 0.0974275 0.0609627 0.230849) 2563 7588 1
(0.0589372 0.828063 0.0108159 0.102184) 2568 7604 1
(0.198243 0.45461 0.147203 0.199945) 2572 7616 2
(0.0432619 0.260805 0.265901 0.430032) 2577 7630 2
(0.100292 0.425393 0.0903132 0.384002) 2582 7497 1
(0.343993 0.0575629 0.575732 0.0227115) 2587 7661 2
(0.110524 0.580797 0.30191 0.00676952) 2592 7676 2
(0.423174 0.344187 0.128089 0.10455) 2596 7688 2
(0.0798588 0.502557 0.329053 0.0885315) 2601 7701 2
(0.0644634 0.612049 0.12078 0.202707) 2606 7716 2
(0.0435326 0.35843 0.327407 0.270631) 2611 7731 1
(0.0498615 0.328323 0.474985 0.14683) 2616 7747 2
(0.184859 0.390185 0.241814 0.183142) 2620 7760 2
(0.339588 0.131992 0.442124 0.0862958) 2625 3355 1
(0.379789 0.0136715 0.374285 0.232255) 2630 7789 2
(0.147902 0.176828 0.280472 0.394798) 2635 7804 2
(0.646965 0.0463991 0.263417 0.0432198) 2640 7818 2
(0.109288 0.122612 0.229676 0.538424) 2644 7830 1
(0.076953 0.388565 0.455765 0.0787168) 2649 105986 2
(0.251663 0.218493 0.407586 0.122258) 2654 7856 2
(0.0362233 0.149109 0.0863349 0.728333) 2709 7875 2
(0.361322 0.0334891 0.424579 0.18061) 2664 7741 2
(0.522623 0.0500926 0.389535 0.0377492) 2668 7753 1
(0.0643949 0.0376311 0.886472 0.0115016) 2673 7768 2
(0.416113 0.540603 0.040536 0.00274793) 2678 7783 2
(0.465193 0.218284 0.213061 0.103462) 2683 7946 1
(0.246507 0.378512 0.291281 0.0836998) 2688 7961 1
(0.687552 0.231474 0.00149001 0.0794842) 2692 7825 2
(0.0751607 0.565619 0.218571 0.140649) 2697 7840 2
(0.133875 0.341041 0.214691 0.310392) 2702 8003 2
(0.226174 0.313223 0.349219 0.111385) 2707 3599 1
(0.0509462 0.0535137 0.739842 0.155698) 2712 8032 1
(0.059377 0.627828 0.152153 0.160643) 2716 8045 2
(0.791738 0.0792113 0.106815 0.0222361) 2721 7911 1
(0.0720109 0.154159 0.677888 0.0959415) 2726 8074 1
(0.0296705 0.713643 0.134843 0.121843) 2732 8089 1
(0.234664 0.135894 0.0829003 0.546542) 2736 3686 2
(0.343411 0.145247 0.444882 0.0664599) 2740 3698 2
(0.287195 0.169386 0.18232 0.361099) 2745 8128 1
(0.126119 0.0677074 0.403373 0.402801) 2750 101679 2
(0.0644143 0.0232149 0.0404433 0.871927) 2756 8160 2
(0.0828231 0.479945 0.305889 0.131343) 2760 8175 1
(0.208253 0.188146 0.111151 0.49245) 2764 8188 1
(0.0646169 0.264538 0.618304 0.052541) 2770 8202 1