/*--------------------------------*- C++ -*----------------------------------*\
  =========                 |
  \\      /  F ield         | OpenFOAM: The Open Source CFD Toolbox
   \\    /   O peration     | Website:  https://openfoam.org
    \\  /    A nd           | Version:  12
     \\/     M anipulation  |
\*---------------------------------------------------------------------------*/
/*   Windows 32 and 64 bit porting by blueCAPE: http://www.bluecape.com.pt   *\
|  Based on Windows porting (2.0.x v4) by Symscape: http://www.symscape.com   |
\*---------------------------------------------------------------------------*/
FoamFile
{
    format      ascii;
    class       vectorField;
    location    "1/lagrangian/cloud";
    object      U;
}
// * * * * * * * * * * * * * * * * * * * * * * * * * * * * * * * * * * * * * //


7171
(
(0.00913685 0.000322206 1.08062e-05)
(0.00525755 0.000111829 -1.04458e-06)
(0.00875612 0.000299656 0.000111846)
(0.00763367 0.000247254 0.000192246)
(0.00314774 5.43854e-05 4.20016e-05)
(0.00337567 6.21871e-05 7.07921e-05)
(0.00234742 6.68893e-05 9.65553e-05)
(0.000497028 1.68435e-05 5.42649e-06)
(0.000137047 7.38128e-06 -1.31384e-05)
(0.000122229 2.08579e-05 2.06588e-05)
(0.029508 0.0011746 2.99557e-05)
(0.0153039 0.00108478 8.11187e-05)
(0.00637932 0.000348686 2.48627e-05)
(0.00244218 0.000123085 1.73604e-06)
(0.00175151 8.52115e-05 6.80573e-06)
(0.00666496 0.00040619 0.000300772)
(0.00289791 0.000212382 0.000176595)
(0.00242 0.000121692 0.000147049)
(0.000214303 1.82363e-05 -1.05043e-05)
(0.000382389 7.52212e-05 6.3367e-05)
(0.0184528 -2.36593e-05 -2.51667e-05)
(0.00790667 0.000780235 -1.00694e-05)
(0.0100919 0.00112651 4.7523e-05)
(0.0157364 0.00139238 0.000232926)
(0.00504967 0.00043967 9.39656e-05)
(0.00588637 0.000573979 0.00025491)
(0.00467337 0.000381401 0.000189634)
(0.00172792 0.000143422 9.69053e-05)
(0.00172822 0.000206981 0.000147991)
(0.000327877 5.08429e-05 -1.97638e-06)
(0.000151453 8.82079e-05 5.09748e-05)
(0.0269964 0.00320477 2.74992e-05)
(0.0129998 0.0020015 2.71818e-05)
(0.00232337 0.000318473 -8.00816e-06)
(0.000893171 0.000103237 -1.66071e-05)
(0.00229261 0.000256305 2.13809e-05)
(0.0044232 0.000487552 0.000202069)
(0.00210457 0.000267983 6.00659e-05)
(0.000890378 0.000116029 3.93706e-05)
(0.000660405 0.000115591 1.70319e-05)
(0.000126688 3.94514e-05 -6.70128e-06)
(0.0115567 0.000846624 -1.37077e-05)
(0.0113491 0.00208893 3.3388e-05)
(0.00515583 0.00102011 3.33899e-05)
(0.0103768 0.00161305 0.000209466)
(0.0112382 0.00156939 0.00022996)
(0.00500924 0.000720759 0.000121442)
(0.00292183 0.000474019 0.000136746)
(0.00257645 0.000430343 0.00019687)
(0.00123991 0.000253506 7.65705e-05)
(0.000725675 0.000202725 7.94832e-05)
(3.97737e-05 5.02183e-05 -3.18881e-07)
(0.0141551 0.00358146 1.37916e-05)
(0.0139681 0.00362435 0.00011616)
(0.00231911 0.000473757 -1.58509e-06)
(0.0129196 0.00238647 0.000345747)
(0.00920535 0.0016518 0.00040771)
(0.00624665 0.00113975 0.000342108)
(0.000782408 0.000151767 8.63581e-06)
(0.00146783 0.000302262 0.000124253)
(0.000912903 0.000241321 3.92686e-05)
(0.000131331 7.84269e-05 2.25758e-06)
(0.00457252 0.00110433 -2.01777e-05)
(4.51797e-05 1.46617e-05 -3.00146e-05)
(0.0173689 0.00481792 0.000213823)
(0.00628106 0.00137393 5.95864e-05)
(0.00120404 0.000231072 5.65784e-06)
(0.00467148 0.000921074 0.000249316)
(0.0044563 0.000962183 0.000262874)
(0.00175587 0.00044296 0.000166398)
(0.000339914 9.96374e-05 1.38964e-05)
(9.7381e-06 4.26149e-06 -2.90925e-05)
(0.0422252 0.00267096 0.000101148)
(0.00702324 0.00292555 -8.70535e-06)
(0.00923026 0.00319778 6.92836e-05)
(0.0124338 0.00324836 0.000200953)
(0.00737175 0.00175091 0.000270152)
(0.00822938 0.00178689 0.000434248)
(0.00544841 0.00123869 0.000403922)
(0.00163811 0.000409444 6.55225e-05)
(0.000779019 0.000219077 4.22752e-05)
(0.000880221 0.000327891 9.82678e-05)
(4.44176e-05 6.29846e-05 -1.50308e-05)
(0.00131219 0.00069428 -2.86672e-05)
(0.0196186 0.00914642 0.000153002)
(0.0151514 0.00512054 0.000203707)
(0.00269278 0.000722809 5.15554e-05)
(0.00547014 0.00128921 0.00016198)
(0.000751389 0.000179246 4.1486e-06)
(0.00165164 0.000429405 7.63752e-05)
(0.00152388 0.000436967 9.97527e-05)
(0.00015593 5.57669e-05 -1.20418e-05)
(0.000185833 0.000112402 1.60994e-05)
(0.0114483 0.0119941 0.000128846)
(0.0176094 0.00991746 0.000115461)
(0.00854291 0.00395253 6.33066e-05)
(0.011184 0.00354003 0.000232454)
(0.00669452 0.00172928 0.000173089)
(0.00765606 0.00188696 0.000557244)
(0.00346155 0.000915048 0.000342643)
(0.00125132 0.00035702 6.96838e-05)
(0.000249126 8.21687e-05 -1.07737e-05)
(0.000464104 0.000233025 3.68564e-05)
(1.0065e-05 4.91064e-05 -2.07137e-05)
(0.0197293 0.0186125 0.000132842)
(0.00949231 0.00563775 7.89294e-05)
(0.0100654 0.00387005 0.000162848)
(0.00375303 0.00110564 6.68718e-05)
(0.00865337 0.00223854 0.000524537)
(0.00279877 0.00072995 0.000185437)
(0.00254889 0.00071065 0.000199063)
(0.000691357 0.000220034 4.62542e-05)
(0.000311506 0.000130239 8.79267e-06)
(7.40411e-05 7.77501e-05 -1.23669e-05)
(0.00942745 0.0208755 9.70115e-05)
(0.0120993 0.0101568 0.000127252)
(0.00932585 0.00445723 0.000127547)
(0.00914579 0.00312656 0.000290471)
(0.00488491 0.00132816 0.000240871)
(0.001051 0.000272474 3.45181e-05)
(0.00114192 0.00030962 9.67445e-05)
(0.00163352 0.000487497 0.000148673)
(0.00045458 0.000172536 4.56595e-05)
(0.00043208 0.000255254 6.61081e-05)
(0.00260786 0.0207683 0.000346151)
(0.0114986 0.0149972 7.48749e-05)
(0.00347331 0.0022343 1.7673e-05)
(0.0102331 0.00419839 0.000135548)
(0.00954716 0.00278944 0.000493275)
(0.00639121 0.00165229 0.000465609)
(0.00533784 0.00139319 0.000532292)
(0.00159753 0.000446752 0.000105406)
(0.000684439 0.000226286 5.18668e-05)
(0.000243294 0.000117406 8.18214e-06)
(5.74521e-05 0.000108471 -5.58529e-06)
(0.00678934 0.0214262 0.000156247)
(0.00824865 0.00682699 9.64533e-05)
(0.0125993 0.00627223 0.000249892)
(0.00172725 0.000598226 2.53806e-05)
(0.00860579 0.00231337 0.000435176)
(0.00632618 0.00159954 0.000611916)
(0.00152687 0.000402498 0.000143358)
(0.00195221 0.000569616 0.000277128)
(0.000866562 0.000331127 6.3154e-05)
(0.000112359 8.4542e-05 -1.34761e-06)
(0.00162291 0.0165254 0.000141738)
(0.00397666 0.00523032 1.34695e-05)
(0.0110453 0.0071469 0.000116626)
(0.0113327 0.00453856 0.000357433)
(0.00740751 0.00208005 0.000451574)
(0.00107415 0.000265183 2.50813e-05)
(0.00288926 0.000697028 0.000336862)
(0.00121484 0.000324828 0.000134974)
(0.00106421 0.000336712 0.000100046)
(0.000528342 0.000284172 8.81252e-05)
(3.81413e-06 7.10284e-06 -2.84497e-05)
(0.00293943 0.0061601 2.61406e-05)
(0.00612165 0.00507469 9.28119e-05)
(0.0110154 0.00527123 0.000320926)
(0.00161693 0.000513349 3.76799e-05)
(0.00405665 0.00104514 0.000255255)
(0.002256 0.000490994 0.000138516)
(0.00201749 0.000466707 0.000259081)
(0.00166775 0.000430571 0.000222634)
(0.000480677 0.000177183 5.05435e-05)
(0.000304128 0.000240743 7.15507e-05)
(0.000712474 0.00415069 -9.01371e-06)
(0.000788295 0.000925378 -1.79589e-05)
(0.00793795 0.00464471 0.000176826)
(0.00948699 0.00361427 0.00028824)
(0.00858667 0.00224403 0.000550218)
(0.00459307 0.00091133 0.000458335)
(0.00266715 0.000520555 0.00022197)
(0.00184383 0.000379883 0.000258372)
(0.000357749 0.000108391 2.72944e-05)
(0.000458969 0.000216349 8.10315e-05)
(4.36997e-05 0.000132434 2.2967e-05)
(7.63459e-05 0.000140519 -2.92623e-05)
(0.00984297 0.00773519 0.00020515)
(0.000314582 0.00013927 -2.38964e-05)
(0.0019378 0.000588372 4.79074e-05)
(0.00145115 0.000287597 0.000103415)
(0.00469755 0.000755629 0.000583703)
(0.00193107 0.000314277 0.00024919)
(0.000724329 0.000156622 4.20313e-05)
(0.000464012 0.00014484 5.44005e-05)
(0.000214828 0.000183663 5.45222e-05)
(0.00352651 0.0114907 9.94756e-05)
(0.0069581 0.00688388 0.000111536)
(0.00177359 0.000885632 2.67935e-05)
(0.0074424 0.00273268 0.000251896)
(0.00754583 0.00157634 0.000550952)
(0.00221159 0.000357599 0.000105513)
(0.00317908 0.00040774 0.000404579)
(0.00176524 0.000288423 0.000245651)
(0.000693324 0.000148382 8.70096e-05)
(0.000392808 0.000175243 4.58573e-05)
(0.00086676 0.00779566 8.62955e-05)
(0.00194357 0.00282807 -3.09497e-06)
(0.00391061 0.00255139 5.25563e-05)
(0.0054048 0.00235442 0.00015714)
(0.00744459 0.0018265 0.000328978)
(0.00627383 0.00104318 0.000432118)
(0.00198721 0.000254794 0.000220087)
(0.00164409 0.000208246 0.000198797)
(0.000349244 4.84779e-05 1.77267e-05)
(0.000638611 0.000164673 0.000111542)
(0.000105829 0.000157734 6.72214e-05)
(0.00114948 0.00252806 -3.07288e-06)
(0.000212519 0.000179069 -2.71532e-05)
(0.00592319 0.00281127 0.000134824)
(0.00557728 0.0015941 0.000130599)
(0.00552121 0.00100644 0.000337889)
(0.00348695 0.000390687 0.000237488)
(0.000591923 5.14388e-05 1.63768e-05)
(0.0016685 0.000149263 0.000223466)
(0.000127623 2.23384e-05 -5.22346e-06)
(5.25464e-05 2.54699e-05 -7.63423e-06)
(0.00101966 0.0054617 1.5911e-05)
(0.00569031 0.00596089 9.15673e-05)
(0.00601219 0.00332081 0.000149653)
(0.00710811 0.00222646 0.000284102)
(0.00249958 0.000432434 0.000124909)
(0.00563214 0.000617839 0.000449484)
(0.000908898 5.47868e-05 7.87875e-05)
(2.83738e-05 1.84196e-06 -2.78931e-05)
(0.00120802 0.000113025 0.000137908)
(0.000370182 8.60129e-05 6.69065e-05)
(5.29066e-05 8.96904e-05 3.58785e-05)
(0.00422021 0.00585302 0.000110214)
(0.000558852 0.000413148 -2.16474e-05)
(0.0078913 0.0030207 0.000213032)
(0.00781837 0.00165775 0.000326532)
(0.00592642 0.000636149 0.00044442)
(0.00362729 0.000183366 0.000368731)
(0.00291216 0.000123897 0.000285616)
(0.00113484 6.82635e-05 0.000103719)
(0.000716564 9.16255e-05 8.04428e-05)
(4.43075e-05 1.88613e-05 -1.31694e-05)
(0.00147841 0.00438696 7.72146e-05)
(0.0039489 0.00352494 5.54639e-05)
(0.00551036 0.00234466 9.94026e-05)
(0.00624529 0.00162281 0.000219632)
(0.00692074 0.000865908 0.00043234)
(0.00364997 0.000197693 0.000305702)
(0.00276801 0.000100231 0.000228003)
(0.00177886 4.78119e-05 0.000175712)
(0.000128818 8.24599e-06 -1.76337e-05)
(0.000362898 7.2498e-05 7.27541e-05)
(0.000166674 0.000892752 -2.37306e-06)
(0.00338227 0.00464354 9.02316e-05)
(0.00603323 0.00300384 9.28606e-05)
(0.00717475 0.00176485 0.000260454)
(0.000958415 0.000127642 1.04921e-05)
(0.0053922 0.000344453 0.000330124)
(0.00283115 0.000100489 0.000195009)
(0.0024135 2.48955e-05 0.000226462)
(0.000798259 2.17465e-05 4.84342e-05)
(0.000589227 5.3336e-05 9.54534e-05)
(5.0676e-05 2.68371e-05 -6.28889e-06)
(0.00185543 0.0029071 7.01243e-05)
(0.00214994 0.00122137 3.86573e-05)
(0.00707558 0.00212233 0.000163444)
(0.00655468 0.000987207 0.00024885)
(0.000220999 1.67196e-05 -2.20407e-05)
(0.0049766 0.000175562 0.00035447)
(0.00309851 1.90997e-05 0.000297314)
(0.00147366 6.49843e-06 0.000151278)
(0.000398125 1.44211e-05 1.89039e-05)
(0.000122721 1.93011e-05 1.61777e-05)
(0.000197924 0.00152884 6.09126e-06)
(0.00166814 0.00110799 2.49854e-06)
(0.00588399 0.00175071 0.00015551)
(0.00707502 0.00112613 0.000250661)
(0.00234518 0.000185151 4.33045e-05)
(0.000783173 3.10827e-05 1.96264e-06)
(0.000546127 5.13088e-06 -4.42278e-07)
(0.00193806 -5.18971e-06 0.00019897)
(0.000735707 7.47672e-06 4.67391e-05)
(0.000375581 2.16017e-05 3.87181e-05)
(5.63465e-05 1.35196e-05 4.62817e-06)
(0.0018235 0.00164324 6.48838e-05)
(0.00545869 0.00167402 0.000116957)
(0.00477593 0.000599975 0.000142068)
(0.00238291 0.000176562 3.42443e-05)
(0.00263181 8.42857e-05 0.000117202)
(0.00193467 1.65829e-05 0.000132153)
(0.00191794 -5.42075e-06 0.000146786)
(0.00160278 -7.56146e-07 0.000173923)
(0.000641874 1.49191e-05 8.44684e-05)
(0.000206878 1.36143e-05 4.6652e-05)
(0.000400259 0.000459119 -7.40051e-06)
(0.00429735 0.000793404 8.13572e-05)
(0.000523078 5.72914e-05 -2.11193e-05)
(0.000298457 1.68791e-05 -2.34058e-05)
(0.00557543 0.000144625 0.000214485)
(0.000242684 2.42289e-06 -2.01783e-05)
(0.00359083 -2.25106e-06 0.000272347)
(0.00204115 -9.89755e-06 0.000172201)
(0.000562588 1.773e-06 6.15936e-05)
(0.000511733 5.72545e-06 8.58747e-05)
(3.65404e-05 8.71301e-06 1.12825e-05)
(0.000961332 0.000118509 -1.65966e-05)
(0.000845765 4.21217e-05 -1.93474e-05)
(0.00453859 0.000208486 0.000105141)
(0.00192505 3.40854e-05 2.15554e-05)
(0.000568064 3.14946e-06 -1.17162e-05)
(8.62822e-06 -3.41772e-09 -2.98301e-05)
(0.00214451 -6.29202e-06 0.000117362)
(0.000739559 -1.89859e-06 2.17296e-05)
(0.000171882 -3.76842e-08 -1.43981e-05)
(0.000210056 7.70146e-06 6.85219e-05)
(0.0223154 0.000354988 3.91843e-05)
(0.0140422 0.00041953 0.000127253)
(0.0184711 0.000693087 0.000237935)
(0.00543259 0.000140734 0.000117302)
(0.01111 0.000266536 0.000499793)
(0.000115728 2.18039e-06 -2.16452e-05)
(0.00469904 0.000152478 0.000542194)
(0.00125832 3.77536e-05 0.000146429)
(0.00154311 6.75364e-05 0.000155187)
(0.000641032 3.72863e-05 0.000131735)
(0.0307421 0.000215957 -2.00544e-07)
(0.0264792 0.00208761 0.000204426)
(0.0202326 0.000892319 0.000251533)
(0.0168095 0.000729134 0.00025547)
(0.0127553 0.000849417 0.000593065)
(0.00865875 0.000366913 0.000378912)
(0.00604016 0.000279271 0.000509368)
(0.00356623 0.000172346 0.00038806)
(0.001955 0.000146232 0.000323922)
(0.000944745 9.94837e-05 0.000199228)
(0.000257647 6.75205e-05 0.000145238)
(0.0294187 0.00245514 0.000116989)
(0.0223529 0.00241401 0.000214339)
(0.0180144 0.00203274 0.00045926)
(0.0138129 0.00136053 0.000646616)
(0.0102159 0.000711716 0.000427348)
(0.00696172 0.000680881 0.000653149)
(0.0043673 0.0004408 0.000406396)
(0.00257312 0.000303273 0.000273599)
(0.00136649 0.000150638 0.000258217)
(0.000449349 0.000102362 0.000158322)
(0.031499 0.00217964 2.93741e-05)
(0.02452 0.00335983 0.000201039)
(0.0198069 0.00249039 0.000285048)
(0.0152673 0.00178835 0.000500767)
(0.0114964 0.00130339 0.000675755)
(0.00818651 0.000850966 0.000705055)
(0.00490859 0.000672177 0.000539544)
(0.00328232 0.000487801 0.000353219)
(0.00185143 0.000285723 0.00026135)
(0.000841105 0.000182608 0.000158744)
(0.000115848 0.000121651 0.000111133)
(0.0276361 0.00582544 0.000179338)
(0.0224522 0.00503695 0.000267692)
(0.0170935 0.00316168 0.00031519)
(0.0128504 0.00192281 0.000611339)
(0.00971576 0.00146759 0.000743707)
(0.00619303 0.00102836 0.000673736)
(0.00393129 0.000663924 0.00061266)
(0.00239269 0.00044783 0.000340745)
(0.00100329 0.000252864 0.000121269)
(0.000337071 0.000170327 0.000153921)
(0.0310351 0.00562216 9.19689e-05)
(0.0246879 0.00657276 0.000238628)
(0.018762 0.00475455 0.000396373)
(0.014531 0.00251243 0.000617452)
(0.0109735 0.0017373 0.000538094)
(0.00759527 0.00131056 0.000449101)
(0.00496562 0.000921426 0.000389083)
(0.0028425 0.00054603 0.000304053)
(0.00141782 0.000318068 0.000187854)
(0.000523297 0.000211114 0.000110999)
(0.0426747 0.00486758 0.000137664)
(0.0272876 0.00924336 0.000104374)
(0.0203245 0.00606434 0.00029338)
(0.015816 0.00392134 0.000576443)
(0.0119036 0.00242476 0.000431283)
(0.00871799 0.00180894 0.000616671)
(0.00626841 0.00134662 0.000534741)
(0.00358076 0.000840336 0.000429611)
(0.0019596 0.00050547 0.000266703)
(0.000889408 0.000290043 0.000203957)
(0.000223518 0.000223021 0.000106629)
(0.0358542 0.0133907 0.000104915)
(0.0214269 0.00857562 0.000301119)
(0.0171561 0.00499484 0.000270063)
(0.0131572 0.00331102 0.000705524)
(0.00947962 0.0020278 0.000882182)
(0.00711206 0.00164233 0.000827288)
(0.00416239 0.00104843 0.000659524)
(0.00230819 0.000644865 0.000317742)
(0.00121974 0.000390137 0.00019589)
(0.000354917 0.000262939 0.00016914)
(0.0534364 0.0228225 0.000288206)
(0.0249263 0.0122293 0.00018321)
(0.018107 0.00669321 0.000218151)
(0.0143572 0.00395957 0.000604372)
(0.0111568 0.00280922 0.000926271)
(0.00850406 0.00204489 0.000565162)
(0.00535346 0.00137638 0.00083768)
(0.00315364 0.000864194 0.000400072)
(0.00166656 0.000505124 0.000274641)
(0.000674822 0.000308747 0.000177656)
(0.000132075 0.000258835 0.000147551)
(0.0232858 0.0222336 0.000221878)
(0.0185623 0.00937379 0.000259045)
(0.0148514 0.00525188 0.000535991)
(0.0121508 0.00344605 0.000824625)
(0.00930912 0.00235375 0.000870031)
(0.00604513 0.00156611 0.000780808)
(0.00367038 0.00100541 0.000542805)
(0.00191211 0.000614622 0.00037547)
(0.00100124 0.000385006 0.000176433)
(0.000389364 0.000283384 0.00010045)
(0.0233562 0.036599 0.000664163)
(0.0173911 0.0135843 0.000306427)
(0.0157518 0.00727987 0.000277974)
(0.0125163 0.00406929 0.000836563)
(0.0102791 0.00279199 0.000793531)
(0.00752614 0.00191685 0.000697361)
(0.00458996 0.00124308 0.000594525)
(0.00248667 0.000773492 0.000629969)
(0.0012952 0.000470193 0.000259945)
(0.000597221 0.000324895 0.000199643)
(3.93725e-05 0.000104304 4.56927e-05)
(0.0168626 0.0173741 0.000296048)
(0.0155734 0.00880242 0.000216769)
(0.0133862 0.00524899 0.000466061)
(0.0109588 0.00332298 0.000636978)
(0.00841625 0.00222586 0.000995776)
(0.00544102 0.00143831 0.000635855)
(0.00290821 0.000857642 0.000566475)
(0.00154181 0.000531843 0.000331299)
(0.000931315 0.000390575 0.00021711)
(0.000218983 0.000276133 0.000161959)
(0.00756596 0.0224424 0.000255419)
(0.0140848 0.0123864 0.000313125)
(0.01378 0.00658779 0.00050693)
(0.0119304 0.00426118 0.000746037)
(0.00909932 0.00249393 0.000848468)
(0.00629992 0.0016423 0.000984718)
(0.0037799 0.00104106 0.000802192)
(0.0021057 0.000652885 0.000304326)
(0.00123129 0.000454371 0.000318052)
(0.000443648 0.00029637 0.000106074)
(0.00146585 0.0172096 0.00039111)
(0.012232 0.0150247 0.000329057)
(0.0132127 0.00762809 0.000508781)
(0.012077 0.00506364 0.000640807)
(0.010309 0.00317437 0.000745946)
(0.0074151 0.00187836 0.000680862)
(0.00462046 0.00119459 0.000964008)
(0.00257601 0.000712382 0.000566085)
(0.00156908 0.000503793 0.000376587)
(0.000663332 0.000320246 0.000157224)
(0.000138738 0.000255321 0.000179317)
(0.00820741 0.0154238 0.000269722)
(0.0115124 0.00997829 0.000211156)
(0.0121749 0.00608303 0.000563287)
(0.010769 0.00370384 0.000619317)
(0.00863116 0.00230925 0.000826902)
(0.00572684 0.00132734 0.000940162)
(0.00323266 0.000842552 0.0009104)
(0.00190685 0.000531026 0.000463741)
(0.000867327 0.000327518 0.000196483)
(0.000304284 0.000252779 0.000156133)
(0.0027998 0.0167952 0.000175696)
(0.00961368 0.011664 0.000282308)
(0.0115113 0.0077191 0.000385415)
(0.01067 0.00424804 0.000436052)
(0.00926051 0.00265489 0.000637047)
(0.00644877 0.00143065 0.00121631)
(0.00408472 0.00087295 0.00100149)
(0.00238537 0.000599546 0.000726199)
(0.00127933 0.00036633 0.000280147)
(0.000500126 0.000258358 0.000137077)
(8.71308e-05 0.000229341 9.04613e-05)
(0.00661652 0.0122558 0.000187)
(0.00979907 0.00883952 0.00038421)
(0.0104442 0.00522758 0.000560701)
(0.00986155 0.00322662 0.000500147)
(0.00773444 0.0018203 0.00118048)
(0.00462535 0.000887107 0.00106081)
(0.00316392 0.000665595 0.000765977)
(0.00160654 0.000393682 0.000405619)
(0.000732289 0.000261011 0.000140562)
(0.00019243 0.000216817 0.000122671)
(0.00327325 0.0123259 0.000140289)
(0.00794576 0.00906582 0.000209187)
(0.00982589 0.00597568 0.000495332)
(0.00991103 0.00368741 0.000566104)
(0.00820116 0.00198654 0.00105566)
(0.00585263 0.00102971 0.000655085)
(0.00378094 0.000629517 0.00088475)
(0.00213289 0.00036973 0.00068491)
(0.00100663 0.000267924 0.00019035)
(0.000371057 0.000204252 0.000140788)
(0.00129984 0.0119252 0.000268498)
(0.0053955 0.00988852 0.000209343)
(0.00866038 0.006444 0.000247037)
(0.00973132 0.00416173 0.000588365)
(0.00869707 0.00230424 0.000931957)
(0.0063439 0.00107011 0.000699354)
(0.00452944 0.00061478 0.000618745)
(0.00250316 0.000353842 0.000616031)
(0.00135055 0.00023659 0.000226488)
(0.000606742 0.00020378 0.000217984)
(0.000109757 0.000165271 0.000163121)
(0.00301961 0.010221 0.000198234)
(0.00718453 0.00686153 0.000330216)
(0.00910762 0.00469843 0.00033471)
(0.00878676 0.00261882 0.000750525)
(0.00732965 0.00139821 0.00104876)
(0.0053489 0.000715368 0.000914875)
(0.00316721 0.000379775 0.000447597)
(0.00186981 0.000219617 0.000333345)
(0.000911487 0.000183856 0.000284025)
(0.000339677 0.000159106 0.000102492)
(0.000841463 0.00806504 0.000189354)
(0.0051265 0.0074543 0.000178931)
(0.00835142 0.00526228 0.000385762)
(0.0088077 0.0032055 0.000562572)
(0.00784297 0.00160904 0.000860478)
(0.00637306 0.000905497 0.000847803)
(0.0039856 0.000306364 0.000888032)
(0.00236672 0.000167782 0.000640283)
(0.00108531 0.00016352 0.000327536)
(0.000462538 0.00014147 0.0001963)
(0.000156489 0.000126593 0.000133598)
(0.00284942 0.00689771 0.00017004)
(0.00695147 0.00522737 0.000184115)
(0.00835451 0.00335784 0.000435814)
(0.00803571 0.00188528 0.000463936)
(0.00687352 0.000981105 0.000631216)
(0.00465163 0.000378629 0.000879445)
(0.00302434 0.000207952 0.000615536)
(0.0014723 0.00010248 0.000393995)
(0.00073823 0.000102261 0.00017906)
(0.000301079 0.000107351 0.000123854)
(0.00180572 0.006712 0.000159853)
(0.00576643 0.00558481 0.000199528)
(0.00770355 0.00350074 0.00029674)
(0.00797184 0.00198593 0.000520709)
(0.00746671 0.00124552 0.000854856)
(0.00550939 0.000461933 0.000583624)
(0.00345675 0.000128673 0.000634266)
(0.00193928 6.89592e-05 0.000359777)
(0.000966646 8.27383e-05 0.000260213)
(0.000442884 8.5639e-05 0.000165388)
(3.5379e-06 7.26448e-06 -1.92268e-05)
(0.00346681 0.00548384 0.000195293)
(0.00661044 0.00340698 0.000321281)
(0.00792818 0.00241054 0.000397095)
(0.00767565 0.00143924 0.000663139)
(0.00615577 0.000610449 0.000505653)
(0.00442529 0.000216822 0.000544021)
(0.00247384 5.49879e-05 0.000416244)
(0.00127592 5.80635e-05 0.000225534)
(0.00073167 7.09083e-05 0.000182401)
(0.00021707 8.49158e-05 9.85168e-05)
(0.0020244 0.00418736 0.000129451)
(0.00542388 0.00370693 0.000158983)
(0.00727282 0.00217096 0.000273078)
(0.00752671 0.00146527 0.000363259)
(0.00680394 0.000730893 0.000643816)
(0.00484025 0.000184969 0.000483389)
(0.00301561 5.00153e-05 0.000394645)
(0.00173253 2.49516e-05 0.000251649)
(0.00105085 3.95921e-05 0.000180582)
(0.000429563 5.50301e-05 0.000127779)
(5.39804e-05 0.000476672 -4.23633e-06)
(0.00429071 0.00295382 0.000255359)
(0.00665091 0.00232743 0.000222673)
(0.00732802 0.00146586 0.000446916)
(0.00700141 0.000708969 0.00061129)
(0.00583357 0.000327665 0.000670104)
(0.00396714 6.13686e-05 0.000658553)
(0.00237221 -3.28763e-06 0.000542007)
(0.00133243 2.25764e-05 0.000245548)
(0.000545272 3.91153e-05 0.000208581)
(9.1651e-05 4.35154e-05 0.000112888)
(0.00269305 0.00276963 0.000119352)
(0.00549215 0.00235344 0.00030629)
(0.00704746 0.00161723 0.000431974)
(0.00718957 0.000739357 0.000437469)
(0.0062863 0.000362576 0.000670748)
(0.00446083 6.33722e-05 0.000610388)
(0.00280451 2.29455e-06 0.000371569)
(0.00182098 -2.51678e-06 0.000369792)
(0.000831264 2.19846e-05 0.000127465)
(0.000265548 3.09726e-05 0.000135062)
(0.00144112 0.0019395 0.000151771)
(0.00422186 0.00200098 0.000144709)
(0.00636701 0.00146016 0.000207127)
(0.00712682 0.000694246 0.000407226)
(0.00663219 0.000366759 0.000571189)
(0.00533966 0.000115198 0.000609464)
(0.00338977 -2.92947e-06 0.000550409)
(0.00216497 -1.09201e-05 0.000435856)
(0.00117955 6.04923e-06 0.000188724)
(0.000486837 2.15157e-05 0.000111362)
(3.56054e-05 1.7448e-05 6.5953e-05)
(0.00310924 0.00128629 0.000118888)
(0.00548541 0.000963641 0.000295585)
(0.00683326 0.000729691 0.000229766)
(0.00693081 0.000352952 0.000392452)
(0.00596069 0.000100229 0.000434723)
(0.00405118 9.86604e-06 0.00063078)
(0.0028542 -9.99392e-06 0.00040691)
(0.00153386 -2.91675e-06 0.000206834)
(0.000713094 1.01825e-05 0.000112008)
(0.000252949 1.54811e-05 0.000159429)
(0.000646248 0.000359709 2.03564e-05)
(0.00226084 0.000272297 5.81756e-05)
(0.00269154 0.000179355 7.80553e-05)
(0.00138161 5.13707e-05 3.05827e-05)
(0.00266827 2.99423e-05 0.000181441)
(0.00266034 1.24594e-05 0.000302389)
(0.00176747 -9.46419e-08 0.000263621)
(0.00193055 -4.77477e-06 0.000246631)
(0.000843727 3.30532e-07 0.000107059)
(0.000401013 6.76285e-06 0.000115301)
(0.0207404 -0.000455814 7.7983e-06)
(0.0114966 0.000284539 8.8616e-05)
(0.0218803 0.000814798 0.000494788)
(0.00233454 4.81246e-05 6.48457e-05)
(0.010895 0.000314599 0.000831125)
(0.00877831 0.000293797 0.000856899)
(0.00234847 7.99569e-05 0.000359827)
(0.00149909 5.53443e-05 0.000293307)
(0.00103402 3.67095e-05 0.000233412)
(0.000305851 9.43777e-06 6.98151e-05)
(0.000114081 2.06131e-05 0.000150004)
(0.0296887 0.000965878 8.84879e-05)
(0.0235759 0.00172738 0.000346912)
(0.0185425 0.000991154 0.000656015)
(0.0139909 0.000951506 0.000665694)
(0.0101855 0.000383857 0.00107379)
(0.00759753 0.000364851 0.00108778)
(0.00473596 0.000211159 0.000754314)
(0.00274655 0.000233319 0.000612571)
(0.0013919 9.42354e-05 0.000405933)
(0.000454945 8.64065e-05 0.000250791)
(0.0315094 6.18321e-05 -6.70511e-06)
(0.0263484 0.0023225 0.000276248)
(0.0206333 0.00218423 0.000535554)
(0.0154194 0.00115076 0.000814521)
(0.0118668 0.00104069 0.000839252)
(0.00894628 0.00076357 0.00118006)
(0.00572561 0.000428103 0.000759257)
(0.0035229 0.000335186 0.000729573)
(0.00169242 0.000159224 0.000397611)
(0.000825133 0.000112819 0.000225255)
(0.000243943 0.000108347 0.000248526)
(0.029826 0.00378699 0.000167022)
(0.0226834 0.00372139 0.000362107)
(0.0176049 0.00208011 0.00065921)
(0.0134345 0.00151724 0.000693241)
(0.0103851 0.00113716 0.000978563)
(0.00688185 0.000830017 0.000862144)
(0.00411264 0.000576245 0.000864954)
(0.00223328 0.000342098 0.000508702)
(0.00103038 0.000192204 0.000269813)
(0.000416409 0.00013305 0.000222734)
(0.0318182 0.00331943 0.000138825)
(0.0249451 0.00564974 0.000260611)
(0.0188757 0.00359148 0.000619781)
(0.0146547 0.00254205 0.000757442)
(0.0112316 0.00174195 0.000948146)
(0.00813078 0.00130333 0.000940463)
(0.00525025 0.000912186 0.00109303)
(0.00290629 0.000540631 0.000542226)
(0.00138582 0.000293491 0.000380298)
(0.000741319 0.000193651 0.000289729)
(4.89821e-05 6.36006e-05 5.38927e-05)
(0.0280958 0.00753848 0.000290043)
(0.0205064 0.00509083 0.000466062)
(0.0160978 0.00357114 0.00060421)
(0.0126794 0.00219628 0.000872625)
(0.00961849 0.00160428 0.00118944)
(0.00582965 0.00113058 0.00116045)
(0.00335728 0.000737361 0.000799577)
(0.00203518 0.000479809 0.000419739)
(0.00101576 0.000288804 0.0002661)
(0.000289439 0.00019461 0.000175838)
(0.0339525 0.008697 0.000200036)
(0.0221257 0.00724706 0.000466069)
(0.0173912 0.00454395 0.000582452)
(0.0141298 0.00325564 0.000873329)
(0.0106437 0.00204531 0.00112463)
(0.00729098 0.00154721 0.00113474)
(0.00455701 0.00110356 0.00110662)
(0.00253927 0.000636657 0.000743898)
(0.00138802 0.000423575 0.000425905)
(0.000597645 0.000252511 0.000277749)
(0.0484213 0.00591293 6.47844e-05)
(0.0246687 0.00945459 0.000368077)
(0.0181733 0.00651872 0.000676129)
(0.0153833 0.00439095 0.000933326)
(0.0117241 0.00261386 0.00121411)
(0.00836655 0.00186781 0.00150018)
(0.00504256 0.00130143 0.00121383)
(0.00322471 0.000840173 0.000795892)
(0.00185541 0.000519966 0.000413983)
(0.000817128 0.000319247 0.000359271)
(0.000138427 0.000238986 0.000208574)
(0.0297709 0.0166907 0.000232033)
(0.0196255 0.00916644 0.000534744)
(0.0163759 0.00600088 0.000799848)
(0.0130602 0.00345826 0.000813133)
(0.00935457 0.00218701 0.00107964)
(0.00658985 0.001598 0.00109029)
(0.00386933 0.00103569 0.000862809)
(0.0022676 0.00069407 0.000712727)
(0.0011951 0.000433235 0.000342967)
(0.000336085 0.000275351 0.000235342)
(0.0327552 0.0313293 0.000429915)
(0.0201912 0.0114594 0.000409575)
(0.017457 0.00735361 0.000471332)
(0.0137478 0.00455799 0.000938003)
(0.0104168 0.00274274 0.00120036)
(0.00727128 0.0018976 0.00143902)
(0.00474745 0.0013403 0.00130001)
(0.00288564 0.000847106 0.000668806)
(0.00158992 0.000536845 0.000440165)
(0.000673507 0.000338572 0.000292864)
(8.23223e-05 0.000265332 0.000213117)
(0.0211134 0.0188093 0.000402752)
(0.0170215 0.0106469 0.000474087)
(0.0142034 0.00566352 0.000827331)
(0.0118986 0.00349233 0.000937367)
(0.0086832 0.00228664 0.0015164)
(0.00571398 0.00156611 0.0013216)
(0.00365131 0.00106572 0.000916742)
(0.00197964 0.000654393 0.00058623)
(0.000957081 0.000403184 0.000330232)
(0.000294452 0.000285182 0.000218241)
(0.0151306 0.02647 0.000492981)
(0.0164754 0.0135463 0.000375111)
(0.0144264 0.00742911 0.000574136)
(0.0126857 0.00440171 0.00121413)
(0.00989295 0.00278176 0.00162534)
(0.00660746 0.00180352 0.00185189)
(0.00433049 0.00122408 0.00110373)
(0.00243655 0.000796551 0.000922237)
(0.00125863 0.000475584 0.00042879)
(0.000451572 0.000309499 0.000329015)
(0.00151344 0.0171032 0.000477275)
(0.0142544 0.0172464 0.000431417)
(0.0136819 0.00880458 0.000497592)
(0.0128334 0.00519592 0.000979639)
(0.0105388 0.00314517 0.00131585)
(0.00742075 0.00198466 0.001949)
(0.00547984 0.00149611 0.00177185)
(0.00308368 0.000878481 0.000901905)
(0.00150999 0.000518546 0.000520321)
(0.000661152 0.000336858 0.000293093)
(0.000101746 0.000266238 0.000240432)
(0.0087818 0.0199757 0.000427998)
(0.0136158 0.0119298 0.000407784)
(0.0126244 0.00673984 0.000869475)
(0.0113147 0.00395629 0.00111616)
(0.00881886 0.00239958 0.0014454)
(0.00626056 0.00155882 0.0014115)
(0.00366637 0.000961429 0.00106)
(0.00200093 0.000618595 0.000810111)
(0.00102075 0.000398248 0.000394372)
(0.000365096 0.000281452 0.000318856)
(0.00196348 0.0185773 0.000477375)
(0.0109935 0.0131521 0.000344184)
(0.0119026 0.00740932 0.000664968)
(0.0112546 0.00437452 0.00092142)
(0.00936329 0.00262745 0.0016557)
(0.00732087 0.00182874 0.00139502)
(0.00427521 0.00105972 0.00174267)
(0.00235147 0.0006807 0.00112291)
(0.00119958 0.000398383 0.000542992)
(0.000472816 0.000278824 0.000299275)
(0.000153697 0.000251581 0.000199197)
(0.00556565 0.0145397 0.00040155)
(0.0112972 0.00958373 0.000508309)
(0.0113903 0.00558101 0.00080826)
(0.00982073 0.00303368 0.00118882)
(0.00858432 0.00222554 0.00192818)
(0.00571976 0.00129512 0.00156097)
(0.00298304 0.000670305 0.00101535)
(0.00161645 0.000455024 0.000667986)
(0.000735705 0.000293062 0.00032886)
(0.000281577 0.000236234 0.000237511)
(0.00370616 0.0151046 0.000401194)
(0.00861941 0.0109744 0.000478185)
(0.0108504 0.00663322 0.000765642)
(0.010046 0.00363586 0.000900184)
(0.00887763 0.00238214 0.00119908)
(0.00634575 0.00135091 0.00140041)
(0.00362742 0.00075174 0.0015492)
(0.00200086 0.000428871 0.000868639)
(0.00106399 0.000296468 0.000436764)
(0.000479578 0.000238192 0.00029354)
(6.71125e-05 0.000185576 0.000161876)
(0.00580023 0.0117706 0.000385036)
(0.00965279 0.0070363 0.000472591)