/*--------------------------------*- C++ -*----------------------------------*\
  =========                 |
  \\      /  F ield         | OpenFOAM: The Open Source CFD Toolbox
   \\    /   O peration     | Website:  https://openfoam.org
    \\  /    A nd           | Version:  12
     \\/     M anipulation  |
\*---------------------------------------------------------------------------*/
/*   Windows 32 and 64 bit porting by blueCAPE: http://www.bluecape.com.pt   *\
|  Based on Windows porting (2.0.x v4) by Symscape: http://www.symscape.com   |
\*---------------------------------------------------------------------------*/
FoamFile
{
    format      ascii;
    class       volScalarField;
    location    "1";
    object      epsilon;
}
// * * * * * * * * * * * * * * * * * * * * * * * * * * * * * * * * * * * * * //

dimensions      [0 2 -3 0 0 0 0];

internalField   nonuniform List<scalar> 
34500
(
1.38549e-05
1.35401e-05
1.35082e-05
1.34907e-05
1.34712e-05
1.34497e-05
1.3427e-05
1.3404e-05
1.33812e-05
1.33591e-05
1.33378e-05
1.33175e-05
1.3298e-05
1.32795e-05
1.32617e-05
1.32447e-05
1.32282e-05
1.32123e-05
1.31969e-05
1.31818e-05
1.31672e-05
1.31528e-05
1.31388e-05
1.31251e-05
1.31118e-05
1.30988e-05
1.30863e-05
1.30742e-05
1.30627e-05
1.30517e-05
1.30413e-05
1.30315e-05
1.30224e-05
1.30138e-05
1.30059e-05
1.29986e-05
1.29918e-05
1.29856e-05
1.298e-05
1.29748e-05
1.297e-05
1.29657e-05
1.29617e-05
1.29581e-05
1.29547e-05
1.29515e-05
1.29485e-05
1.29457e-05
1.29429e-05
1.294e-05
1.38903e-05
1.35694e-05
1.35398e-05
1.35236e-05
1.35042e-05
1.34826e-05
1.34598e-05
1.34368e-05
1.34141e-05
1.33922e-05
1.33711e-05
1.3351e-05
1.33319e-05
1.33137e-05
1.32964e-05
1.32797e-05
1.32637e-05
1.32482e-05
1.32331e-05
1.32185e-05
1.32041e-05
1.31902e-05
1.31765e-05
1.31631e-05
1.31501e-05
1.31375e-05
1.31253e-05
1.31135e-05
1.31022e-05
1.30915e-05
1.30814e-05
1.30718e-05
1.30628e-05
1.30545e-05
1.30468e-05
1.30397e-05
1.30331e-05
1.30271e-05
1.30216e-05
1.30166e-05
1.3012e-05
1.30078e-05
1.30039e-05
1.30004e-05
1.29971e-05
1.2994e-05
1.29911e-05
1.29881e-05
1.29789e-05
1.29408e-05
1.39025e-05
1.35923e-05
1.35595e-05
1.35408e-05
1.35194e-05
1.3496e-05
1.34719e-05
1.34478e-05
1.34243e-05
1.34018e-05
1.33804e-05
1.33601e-05
1.3341e-05
1.33228e-05
1.33054e-05
1.32889e-05
1.3273e-05
1.32576e-05
1.32427e-05
1.32281e-05
1.32139e-05
1.32e-05
1.31864e-05
1.31732e-05
1.31602e-05
1.31477e-05
1.31355e-05
1.31238e-05
1.31126e-05
1.31019e-05
1.30918e-05
1.30823e-05
1.30734e-05
1.30651e-05
1.30574e-05
1.30503e-05
1.30438e-05
1.30379e-05
1.30324e-05
1.30275e-05
1.30229e-05
1.30188e-05
1.3015e-05
1.30115e-05
1.30082e-05
1.30052e-05
1.30024e-05
1.29992e-05
1.29858e-05
1.29414e-05
1.39237e-05
1.36142e-05
1.35772e-05
1.3554e-05
1.35286e-05
1.3502e-05
1.34753e-05
1.34494e-05
1.34246e-05
1.34014e-05
1.33795e-05
1.3359e-05
1.33397e-05
1.33216e-05
1.33043e-05
1.32879e-05
1.32721e-05
1.32569e-05
1.32421e-05
1.32277e-05
1.32136e-05
1.31998e-05
1.31863e-05
1.31731e-05
1.31602e-05
1.31477e-05
1.31355e-05
1.31239e-05
1.31127e-05
1.3102e-05
1.30919e-05
1.30824e-05
1.30735e-05
1.30653e-05
1.30576e-05
1.30506e-05
1.30441e-05
1.30382e-05
1.30327e-05
1.30278e-05
1.30233e-05
1.30192e-05
1.30154e-05
1.3012e-05
1.30088e-05
1.30059e-05
1.30031e-05
1.29999e-05
1.29864e-05
1.29419e-05
1.39577e-05
1.36481e-05
1.36028e-05
1.35719e-05
1.35401e-05
1.35086e-05
1.34783e-05
1.34499e-05
1.34237e-05
1.33994e-05
1.3377e-05
1.33563e-05
1.3337e-05
1.33189e-05
1.33019e-05
1.32857e-05
1.32701e-05
1.32551e-05
1.32405e-05
1.32263e-05
1.32124e-05
1.31987e-05
1.31853e-05
1.31722e-05
1.31594e-05
1.31469e-05
1.31348e-05
1.31231e-05
1.31119e-05
1.31013e-05
1.30912e-05
1.30817e-05
1.30729e-05
1.30646e-05
1.3057e-05
1.305e-05
1.30436e-05
1.30377e-05
1.30324e-05
1.30275e-05
1.3023e-05
1.3019e-05
1.30153e-05
1.30119e-05
1.30088e-05
1.30059e-05
1.30032e-05
1.30001e-05
1.29867e-05
1.29424e-05
1.40158e-05
1.37023e-05
1.36402e-05
1.35961e-05
1.35544e-05
1.35159e-05
1.3481e-05
1.34496e-05
1.34215e-05
1.33963e-05
1.33734e-05
1.33525e-05
1.33333e-05
1.33154e-05
1.32987e-05
1.32827e-05
1.32675e-05
1.32527e-05
1.32384e-05
1.32244e-05
1.32107e-05
1.31972e-05
1.31839e-05
1.31709e-05
1.31582e-05
1.31458e-05
1.31337e-05
1.31221e-05
1.31109e-05
1.31003e-05
1.30903e-05
1.30808e-05
1.3072e-05
1.30638e-05
1.30563e-05
1.30493e-05
1.30429e-05
1.30371e-05
1.30318e-05
1.3027e-05
1.30226e-05
1.30187e-05
1.3015e-05
1.30117e-05
1.30086e-05
1.30058e-05
1.30032e-05
1.30002e-05
1.2987e-05
1.29429e-05
1.4131e-05
1.37982e-05
1.36961e-05
1.36277e-05
1.35709e-05
1.35229e-05
1.34822e-05
1.34476e-05
1.34177e-05
1.33916e-05
1.33684e-05
1.33475e-05
1.33285e-05
1.3311e-05
1.32946e-05
1.3279e-05
1.32641e-05
1.32498e-05
1.32358e-05
1.32221e-05
1.32086e-05
1.31953e-05
1.31822e-05
1.31693e-05
1.31567e-05
1.31444e-05
1.31324e-05
1.31208e-05
1.31097e-05
1.30991e-05
1.30891e-05
1.30797e-05
1.3071e-05
1.30629e-05
1.30554e-05
1.30485e-05
1.30422e-05
1.30364e-05
1.30312e-05
1.30265e-05
1.30222e-05
1.30182e-05
1.30147e-05
1.30114e-05
1.30085e-05
1.30057e-05
1.30032e-05
1.30003e-05
1.29873e-05
1.29433e-05
1.44246e-05
1.40088e-05
1.37867e-05
1.36684e-05
1.3588e-05
1.35277e-05
1.34808e-05
1.34429e-05
1.34116e-05
1.33849e-05
1.33617e-05
1.33411e-05
1.33225e-05
1.33055e-05
1.32896e-05
1.32745e-05
1.32601e-05
1.32462e-05
1.32326e-05
1.32192e-05
1.3206e-05
1.3193e-05
1.31801e-05
1.31674e-05
1.31549e-05
1.31427e-05
1.31308e-05
1.31193e-05
1.31082e-05
1.30977e-05
1.30878e-05
1.30784e-05
1.30698e-05
1.30617e-05
1.30543e-05
1.30475e-05
1.30413e-05
1.30356e-05
1.30305e-05
1.30258e-05
1.30216e-05
1.30178e-05
1.30143e-05
1.30111e-05
1.30083e-05
1.30056e-05
1.30032e-05
1.30004e-05
1.29875e-05
1.29437e-05
1.53002e-05
1.47066e-05
1.39746e-05
1.37214e-05
1.3602e-05
1.35272e-05
1.34745e-05
1.34344e-05
1.34024e-05
1.33758e-05
1.33531e-05
1.33331e-05
1.33152e-05
1.32989e-05
1.32837e-05
1.32692e-05
1.32554e-05
1.3242e-05
1.32288e-05
1.32159e-05
1.3203e-05
1.31903e-05
1.31776e-05
1.31651e-05
1.31528e-05
1.31407e-05
1.31289e-05
1.31175e-05
1.31065e-05
1.30961e-05
1.30862e-05
1.3077e-05
1.30684e-05
1.30604e-05
1.30531e-05
1.30464e-05
1.30402e-05
1.30347e-05
1.30297e-05
1.30251e-05
1.3021e-05
1.30172e-05
1.30139e-05
1.30108e-05
1.3008e-05
1.30055e-05
1.30031e-05
1.30005e-05
1.29876e-05
1.29439e-05
1.53715e-05
1.5624e-05
1.4443e-05
1.38028e-05
1.36079e-05
1.35177e-05
1.34612e-05
1.34209e-05
1.33896e-05
1.33641e-05
1.33424e-05
1.33235e-05
1.33066e-05
1.32912e-05
1.32768e-05
1.32631e-05
1.32499e-05
1.32371e-05
1.32245e-05
1.3212e-05
1.31995e-05
1.31871e-05
1.31747e-05
1.31625e-05
1.31503e-05
1.31384e-05
1.31267e-05
1.31154e-05
1.31045e-05
1.30942e-05
1.30844e-05
1.30753e-05
1.30668e-05
1.30589e-05
1.30517e-05
1.30451e-05
1.30391e-05
1.30337e-05
1.30288e-05
1.30243e-05
1.30203e-05
1.30167e-05
1.30134e-05
1.30104e-05
1.30077e-05
1.30052e-05
1.3003e-05
1.30005e-05
1.29877e-05
1.29441e-05
1.44051e-05
1.45337e-05
1.40743e-05
1.37163e-05
1.3568e-05
1.3489e-05
1.34385e-05
1.34019e-05
1.33732e-05
1.33498e-05
1.33298e-05
1.33124e-05
1.32968e-05
1.32824e-05
1.32689e-05
1.32561e-05
1.32437e-05
1.32316e-05
1.32195e-05
1.32075e-05
1.31955e-05
1.31835e-05
1.31715e-05
1.31594e-05
1.31475e-05
1.31357e-05
1.31242e-05
1.31131e-05
1.31024e-05
1.30921e-05
1.30825e-05
1.30735e-05
1.30651e-05
1.30574e-05
1.30503e-05
1.30438e-05
1.30379e-05
1.30326e-05
1.30278e-05
1.30235e-05
1.30195e-05
1.3016e-05
1.30128e-05
1.301e-05
1.30073e-05
1.3005e-05
1.30029e-05
1.30004e-05
1.29877e-05
1.29442e-05
1.36691e-05
1.38145e-05
1.37252e-05
1.35896e-05
1.35052e-05
1.34495e-05
1.34095e-05
1.33787e-05
1.3354e-05
1.33333e-05
1.33156e-05
1.32999e-05
1.32858e-05
1.32727e-05
1.32603e-05
1.32484e-05
1.32369e-05
1.32255e-05
1.32141e-05
1.32026e-05
1.31911e-05
1.31795e-05
1.31678e-05
1.31561e-05
1.31444e-05
1.31328e-05
1.31215e-05
1.31106e-05
1.31e-05
1.309e-05
1.30804e-05
1.30715e-05
1.30633e-05
1.30557e-05
1.30488e-05
1.30424e-05
1.30367e-05
1.30315e-05
1.30268e-05
1.30226e-05
1.30188e-05
1.30153e-05
1.30123e-05
1.30095e-05
1.3007e-05
1.30047e-05
1.30026e-05
1.30003e-05
1.29877e-05
1.29442e-05
1.34971e-05
1.3573e-05
1.35544e-05
1.34951e-05
1.3446e-05
1.34079e-05
1.33778e-05
1.33533e-05
1.33328e-05
1.33154e-05
1.33001e-05
1.32864e-05
1.32738e-05
1.32621e-05
1.3251e-05
1.32401e-05
1.32294e-05
1.32188e-05
1.32081e-05
1.31972e-05
1.31862e-05
1.31751e-05
1.31638e-05
1.31524e-05
1.3141e-05
1.31297e-05
1.31186e-05
1.31079e-05
1.30975e-05
1.30876e-05
1.30783e-05
1.30695e-05
1.30615e-05
1.3054e-05
1.30472e-05
1.3041e-05
1.30354e-05
1.30303e-05
1.30258e-05
1.30217e-05
1.3018e-05
1.30147e-05
1.30117e-05
1.3009e-05
1.30066e-05
1.30044e-05
1.30024e-05
1.30001e-05
1.29876e-05
1.29441e-05
1.34072e-05
1.34555e-05
1.34539e-05
1.3424e-05
1.33939e-05
1.33681e-05
1.3346e-05
1.33272e-05
1.33109e-05
1.32965e-05
1.32837e-05
1.32721e-05
1.32612e-05
1.3251e-05
1.3241e-05
1.32313e-05
1.32215e-05
1.32117e-05
1.32017e-05
1.31915e-05
1.3181e-05
1.31703e-05
1.31595e-05
1.31484e-05
1.31374e-05
1.31264e-05
1.31156e-05
1.31051e-05
1.30949e-05
1.30852e-05
1.30761e-05
1.30675e-05
1.30596e-05
1.30523e-05
1.30457e-05
1.30396e-05
1.30341e-05
1.30292e-05
1.30248e-05
1.30208e-05
1.30172e-05
1.3014e-05
1.30111e-05
1.30085e-05
1.30061e-05
1.3004e-05
1.30021e-05
1.29999e-05
1.29874e-05
1.29439e-05
1.33383e-05
1.33794e-05
1.33842e-05
1.33676e-05
1.33487e-05
1.33312e-05
1.33155e-05
1.33014e-05
1.32888e-05
1.32774e-05
1.3267e-05
1.32574e-05
1.32482e-05
1.32394e-05
1.32307e-05
1.3222e-05
1.32132e-05
1.32042e-05
1.31949e-05
1.31854e-05
1.31755e-05
1.31653e-05
1.31549e-05
1.31443e-05
1.31336e-05
1.3123e-05
1.31125e-05
1.31022e-05
1.30923e-05
1.30828e-05
1.30739e-05
1.30655e-05
1.30578e-05
1.30507e-05
1.30442e-05
1.30383e-05
1.30329e-05
1.30281e-05
1.30238e-05
1.30199e-05
1.30164e-05
1.30133e-05
1.30105e-05
1.3008e-05
1.30057e-05
1.30036e-05
1.30018e-05
1.29996e-05
1.29872e-05
1.29437e-05
1.32836e-05
1.33227e-05
1.33307e-05
1.33212e-05
1.33093e-05
1.32977e-05
1.32867e-05
1.32765e-05
1.32671e-05
1.32585e-05
1.32503e-05
1.32425e-05
1.3235e-05
1.32276e-05
1.32201e-05
1.32125e-05
1.32046e-05
1.31965e-05
1.3188e-05
1.31791e-05
1.31698e-05
1.31601e-05
1.31502e-05
1.314e-05
1.31298e-05
1.31195e-05
1.31093e-05
1.30993e-05
1.30897e-05
1.30804e-05
1.30717e-05
1.30636e-05
1.30561e-05
1.30491e-05
1.30428e-05
1.3037e-05
1.30318e-05
1.30271e-05
1.30229e-05
1.30191e-05
1.30157e-05
1.30127e-05
1.301e-05
1.30075e-05
1.30053e-05
1.30033e-05
1.30015e-05
1.29993e-05
1.29869e-05
1.29434e-05
1.32389e-05
1.32775e-05
1.32875e-05
1.32822e-05
1.32748e-05
1.32673e-05
1.32599e-05
1.32529e-05
1.32463e-05
1.32399e-05
1.32338e-05
1.32278e-05
1.32218e-05
1.32157e-05
1.32095e-05
1.32029e-05
1.3196e-05
1.31886e-05
1.31809e-05
1.31727e-05
1.3164e-05
1.31549e-05
1.31455e-05
1.31358e-05
1.31259e-05
1.3116e-05
1.31062e-05
1.30965e-05
1.30872e-05
1.30782e-05
1.30698e-05
1.30618e-05
1.30545e-05
1.30477e-05
1.30415e-05
1.30359e-05
1.30308e-05
1.30263e-05
1.30221e-05
1.30185e-05
1.30151e-05
1.30122e-05
1.30095e-05
1.30071e-05
1.30049e-05
1.30029e-05
1.30012e-05
1.2999e-05
1.29866e-05
1.29431e-05
1.32013e-05
1.324e-05
1.32511e-05
1.32485e-05
1.32442e-05
1.32397e-05
1.32352e-05
1.32308e-05
1.32264e-05
1.32221e-05
1.32178e-05
1.32134e-05
1.32089e-05
1.32041e-05
1.31989e-05
1.31934e-05
1.31873e-05
1.31808e-05
1.31738e-05
1.31662e-05
1.31582e-05
1.31497e-05
1.31408e-05
1.31315e-05
1.31221e-05
1.31126e-05
1.31031e-05
1.30938e-05
1.30848e-05
1.30761e-05
1.30679e-05
1.30602e-05
1.30531e-05
1.30465e-05
1.30404e-05
1.30349e-05
1.303e-05
1.30255e-05
1.30215e-05
1.30178e-05
1.30146e-05
1.30117e-05
1.30091e-05
1.30067e-05
1.30046e-05
1.30026e-05
1.30009e-05
1.29987e-05
1.29863e-05
1.29428e-05
1.31688e-05
1.32079e-05
1.32198e-05
1.3219e-05
1.3217e-05
1.32147e-05
1.32124e-05
1.32101e-05
1.32077e-05
1.32052e-05
1.32025e-05
1.31996e-05
1.31963e-05
1.31927e-05
1.31886e-05
1.3184e-05
1.31789e-05
1.31731e-05
1.31668e-05
1.31599e-05
1.31525e-05
1.31446e-05
1.31362e-05
1.31274e-05
1.31185e-05
1.31094e-05
1.31003e-05
1.30914e-05
1.30826e-05
1.30743e-05
1.30663e-05
1.30588e-05
1.30519e-05
1.30454e-05
1.30395e-05
1.30341e-05
1.30293e-05
1.30249e-05
1.30209e-05
1.30174e-05
1.30142e-05
1.30113e-05
1.30087e-05
1.30064e-05
1.30043e-05
1.30023e-05
1.30006e-05
1.29984e-05
1.2986e-05
1.29425e-05
1.31401e-05
1.31797e-05
1.31923e-05
1.31928e-05
1.31925e-05
1.3192e-05
1.31915e-05
1.31909e-05
1.31902e-05
1.31892e-05
1.3188e-05
1.31864e-05
1.31843e-05
1.31818e-05
1.31787e-05
1.3175e-05
1.31707e-05
1.31657e-05
1.31601e-05
1.31539e-05
1.3147e-05
1.31396e-05
1.31318e-05
1.31235e-05
1.3115e-05
1.31064e-05
1.30977e-05
1.30891e-05
1.30807e-05
1.30726e-05
1.30649e-05
1.30576e-05
1.30508e-05
1.30446e-05
1.30388e-05
1.30335e-05
1.30287e-05
1.30244e-05
1.30205e-05
1.3017e-05
1.30138e-05
1.3011e-05
1.30084e-05
1.30061e-05
1.3004e-05
1.30021e-05
1.30003e-05
1.29982e-05
1.29857e-05
1.29421e-05
1.31144e-05
1.31545e-05
1.31677e-05
1.31693e-05
1.31703e-05
1.31713e-05
1.31723e-05
1.31732e-05
1.31739e-05
1.31743e-05
1.31743e-05
1.3174e-05
1.3173e-05
1.31715e-05
1.31693e-05
1.31665e-05
1.31629e-05
1.31587e-05
1.31537e-05
1.31481e-05
1.31418e-05
1.31349e-05
1.31276e-05
1.31198e-05
1.31118e-05
1.31035e-05
1.30952e-05
1.3087e-05
1.30789e-05
1.30711e-05
1.30636e-05
1.30566e-05
1.305e-05
1.30438e-05
1.30382e-05
1.3033e-05
1.30283e-05
1.30241e-05
1.30202e-05
1.30167e-05
1.30136e-05
1.30108e-05
1.30082e-05
1.30059e-05
1.30038e-05
1.30019e-05
1.30002e-05
1.29979e-05
1.29854e-05
1.29418e-05
1.30911e-05
1.31317e-05
1.31454e-05
1.3148e-05
1.31501e-05
1.31523e-05
1.31546e-05
1.31569e-05
1.31589e-05
1.31605e-05
1.31617e-05
1.31624e-05
1.31625e-05
1.31619e-05
1.31606e-05
1.31585e-05
1.31557e-05
1.31521e-05
1.31477e-05
1.31427e-05
1.3137e-05
1.31306e-05
1.31238e-05
1.31165e-05
1.31088e-05
1.3101e-05
1.30931e-05
1.30852e-05
1.30774e-05
1.30698e-05
1.30626e-05
1.30557e-05
1.30493e-05
1.30433e-05
1.30378e-05
1.30327e-05
1.3028e-05
1.30238e-05
1.302e-05
1.30166e-05
1.30135e-05
1.30107e-05
1.30081e-05
1.30058e-05
1.30037e-05
1.30018e-05
1.3e-05
1.29978e-05
1.29852e-05
1.29414e-05
1.30696e-05
1.31109e-05
1.31251e-05
1.31285e-05
1.31316e-05
1.3135e-05
1.31385e-05
1.3142e-05
1.31451e-05
1.31479e-05
1.31502e-05
1.31518e-05
1.31528e-05
1.31531e-05
1.31525e-05
1.31512e-05
1.3149e-05
1.31461e-05
1.31423e-05
1.31378e-05
1.31325e-05
1.31267e-05
1.31203e-05
1.31134e-05
1.31062e-05
1.30987e-05
1.30911e-05
1.30835e-05
1.30761e-05
1.30688e-05
1.30618e-05
1.30551e-05
1.30488e-05
1.30429e-05
1.30375e-05
1.30325e-05
1.30279e-05
1.30237e-05
1.30199e-05
1.30165e-05
1.30134e-05
1.30106e-05
1.3008e-05
1.30057e-05
1.30036e-05
1.30017e-05
1.29999e-05
1.29976e-05
1.2985e-05
1.29412e-05
1.30496e-05
1.30915e-05
1.31063e-05
1.31106e-05
1.31147e-05
1.31193e-05
1.31239e-05
1.31285e-05
1.31327e-05
1.31366e-05
1.31398e-05
1.31424e-05
1.31442e-05
1.31452e-05
1.31453e-05
1.31446e-05
1.31431e-05
1.31406e-05
1.31374e-05
1.31334e-05
1.31286e-05
1.31232e-05
1.31172e-05
1.31107e-05
1.31038e-05
1.30967e-05
1.30895e-05
1.30822e-05
1.30749e-05
1.30679e-05
1.30611e-05
1.30545e-05
1.30484e-05
1.30426e-05
1.30373e-05
1.30323e-05
1.30278e-05
1.30236e-05
1.30199e-05
1.30165e-05
1.30134e-05
1.30106e-05
1.3008e-05
1.30057e-05
1.30036e-05
1.30016e-05
1.29998e-05
1.29975e-05
1.29848e-05
1.29409e-05
1.30308e-05
1.30735e-05
1.30889e-05
1.30941e-05
1.30994e-05
1.3105e-05
1.31108e-05
1.31165e-05
1.31218e-05
1.31265e-05
1.31306e-05
1.3134e-05
1.31365e-05
1.31382e-05
1.3139e-05
1.31389e-05
1.31379e-05
1.31359e-05
1.31331e-05
1.31295e-05
1.31252e-05
1.31201e-05
1.31145e-05
1.31084e-05
1.31018e-05
1.3095e-05
1.3088e-05
1.3081e-05
1.3074e-05
1.30671e-05
1.30605e-05
1.30541e-05
1.30481e-05
1.30424e-05
1.30371e-05
1.30322e-05
1.30278e-05
1.30236e-05
1.30199e-05
1.30165e-05
1.30134e-05
1.30106e-05
1.3008e-05
1.30057e-05
1.30036e-05
1.30016e-05
1.29998e-05
1.29974e-05
1.29847e-05
1.29407e-05
1.3013e-05
1.30565e-05
1.30728e-05
1.30791e-05
1.30856e-05
1.30924e-05
1.30993e-05
1.3106e-05
1.31123e-05
1.31179e-05
1.31228e-05
1.31269e-05
1.313e-05
1.31323e-05
1.31336e-05
1.3134e-05
1.31334e-05
1.31319e-05
1.31295e-05
1.31263e-05
1.31223e-05
1.31176e-05
1.31122e-05
1.31064e-05
1.31002e-05
1.30936e-05
1.30869e-05
1.308e-05
1.30732e-05
1.30666e-05
1.30601e-05
1.30538e-05
1.30479e-05
1.30423e-05
1.30371e-05
1.30322e-05
1.30278e-05
1.30237e-05
1.30199e-05
1.30165e-05
1.30134e-05
1.30106e-05
1.30081e-05
1.30057e-05
1.30036e-05
1.30016e-05
1.29998e-05
1.29974e-05
1.29846e-05
1.29405e-05
1.29959e-05
1.30404e-05
1.3058e-05
1.30657e-05
1.30735e-05
1.30815e-05
1.30896e-05
1.30972e-05
1.31043e-05
1.31107e-05
1.31163e-05
1.3121e-05
1.31247e-05
1.31275e-05
1.31292e-05
1.313e-05
1.31298e-05
1.31287e-05
1.31266e-05
1.31236e-05
1.31199e-05
1.31155e-05
1.31104e-05
1.31048e-05
1.30988e-05
1.30925e-05
1.30859e-05
1.30793e-05
1.30726e-05
1.30661e-05
1.30597e-05
1.30536e-05
1.30477e-05
1.30422e-05
1.3037e-05
1.30322e-05
1.30278e-05
1.30237e-05
1.302e-05
1.30166e-05
1.30135e-05
1.30107e-05
1.30081e-05
1.30057e-05
1.30036e-05
1.30016e-05
1.29997e-05
1.29973e-05
1.29845e-05
1.29404e-05
1.29794e-05
1.30252e-05
1.30442e-05
1.30535e-05
1.30628e-05
1.30721e-05
1.30812e-05
1.30898e-05
1.30976e-05
1.31047e-05
1.31108e-05
1.31159e-05
1.31201e-05
1.31232e-05
1.31254e-05
1.31264e-05
1.31265e-05
1.31256e-05
1.31238e-05
1.31211e-05
1.31176e-05
1.31133e-05
1.31085e-05
1.3103e-05
1.30972e-05
1.3091e-05
1.30846e-05
1.30781e-05
1.30716e-05
1.30651e-05
1.30588e-05
1.30528e-05
1.3047e-05
1.30415e-05
1.30364e-05
1.30316e-05
1.30272e-05
1.30231e-05
1.30194e-05
1.3016e-05
1.30129e-05
1.30101e-05
1.30075e-05
1.30052e-05
1.3003e-05
1.3001e-05
1.29991e-05
1.29967e-05
1.29842e-05
1.29403e-05
1.29634e-05
1.30053e-05
1.30224e-05
1.30334e-05
1.30443e-05
1.30549e-05
1.30649e-05
1.30742e-05
1.30827e-05
1.30903e-05
1.30969e-05
1.31025e-05
1.3107e-05
1.31104e-05
1.31128e-05
1.31141e-05
1.31144e-05
1.31137e-05
1.3112e-05
1.31095e-05
1.31061e-05
1.3102e-05
1.30972e-05
1.30918e-05
1.30861e-05
1.308e-05
1.30736e-05
1.30672e-05
1.30607e-05
1.30542e-05
1.3048e-05
1.30419e-05
1.30361e-05
1.30306e-05
1.30255e-05
1.30207e-05
1.30162e-05
1.30122e-05
1.30084e-05
1.3005e-05
1.30019e-05
1.2999e-05
1.29964e-05
1.2994e-05
1.29918e-05
1.29898e-05
1.29879e-05
1.29858e-05
1.29775e-05
1.29402e-05
1.29492e-05
1.29604e-05
1.29732e-05
1.29859e-05
1.29981e-05
1.30097e-05
1.30206e-05
1.30306e-05
1.30397e-05
1.30478e-05
1.30549e-05
1.30609e-05
1.30657e-05
1.30695e-05
1.30721e-05
1.30736e-05
1.3074e-05
1.30734e-05
1.30718e-05
1.30693e-05
1.30659e-05
1.30617e-05
1.30569e-05
1.30515e-05
1.30456e-05
1.30394e-05
1.30329e-05
1.30264e-05
1.30198e-05
1.30132e-05
1.30068e-05
1.30006e-05
1.29947e-05
1.29891e-05
1.29838e-05
1.29789e-05
1.29744e-05
1.29702e-05
1.29663e-05
1.29628e-05
1.29596e-05
1.29566e-05
1.2954e-05
1.29515e-05
1.29492e-05
1.29472e-05
1.29452e-05
1.29434e-05
1.29416e-05
1.29396e-05
1.38774e-05
1.35694e-05
1.35382e-05
1.35214e-05
1.35026e-05
1.34816e-05
1.34595e-05
1.34369e-05
1.34146e-05
1.33929e-05
1.33719e-05
1.33519e-05
1.33328e-05
1.33146e-05
1.32972e-05
1.32806e-05
1.32645e-05
1.32489e-05
1.32338e-05
1.32191e-05
1.32048e-05
1.31908e-05
1.3177e-05
1.31636e-05
1.31506e-05
1.31379e-05
1.31256e-05
1.31138e-05
1.31025e-05
1.30918e-05
1.30816e-05
1.3072e-05
1.3063e-05
1.30547e-05
1.30469e-05
1.30398e-05
1.30332e-05
1.30272e-05
1.30217e-05
1.30167e-05
1.30121e-05
1.30079e-05
1.3004e-05
1.30005e-05
1.29973e-05
1.29942e-05
1.29914e-05
1.29885e-05
1.29795e-05
1.2942e-05
1.99791e-06
2.36621e-06
2.42268e-06
2.44399e-06
2.45749e-06
2.46491e-06
2.46723e-06
2.46592e-06
2.46213e-06
2.45676e-06
2.45082e-06
2.44477e-06
2.43899e-06
2.43367e-06
2.42891e-06
2.42473e-06
2.4211e-06
2.41795e-06
2.4152e-06
2.41274e-06
2.41047e-06
2.4083e-06
2.40612e-06
2.40385e-06
2.40143e-06
2.39882e-06
2.39599e-06
2.39295e-06
2.3897e-06
2.38629e-06
2.38276e-06
2.37915e-06
2.37553e-06
2.37195e-06
2.36846e-06
2.3651e-06
2.36191e-06
2.35891e-06
2.35613e-06
2.35359e-06
2.35127e-06
2.34921e-06
2.34738e-06
2.34579e-06
2.34444e-06
2.34335e-06
2.34327e-06
2.36264e-06
2.7919e-06
1.29788e-05
1.60177e-06
1.80686e-06
1.83232e-06
1.83841e-06
1.84192e-06
1.84404e-06
1.84508e-06
1.84537e-06
1.84522e-06
1.84489e-06
1.84456e-06
1.84435e-06
1.84432e-06
1.84449e-06
1.84486e-06
1.8454e-06
1.84607e-06
1.84682e-06
1.84758e-06
1.84829e-06
1.84889e-06
1.84931e-06
1.84949e-06
1.8494e-06
1.849e-06
1.84825e-06
1.84717e-06
1.84577e-06
1.84408e-06
1.84214e-06
1.83999e-06
1.83769e-06
1.8353e-06
1.83287e-06
1.83045e-06
1.82808e-06
1.8258e-06
1.82364e-06
1.82161e-06
1.81974e-06
1.81803e-06
1.8165e-06
1.81513e-06
1.81394e-06
1.81293e-06
1.81216e-06
1.81286e-06
1.84098e-06
2.35754e-06
1.29859e-05
1.58677e-06
1.78361e-06
1.80586e-06
1.80901e-06
1.81006e-06
1.81041e-06
1.81032e-06
1.81003e-06
1.80968e-06
1.80944e-06
1.80938e-06
1.80954e-06
1.80994e-06
1.81057e-06
1.81139e-06
1.81237e-06
1.81346e-06
1.8146e-06
1.81574e-06
1.8168e-06
1.81771e-06
1.81842e-06
1.81885e-06
1.81897e-06
1.81874e-06
1.81814e-06
1.81717e-06
1.81584e-06
1.8142e-06
1.81227e-06
1.81013e-06
1.80783e-06
1.80542e-06
1.80297e-06
1.80053e-06
1.79813e-06
1.79583e-06
1.79365e-06
1.79161e-06
1.78973e-06
1.78802e-06
1.78648e-06
1.78511e-06
1.78393e-06
1.78292e-06
1.78215e-06
1.78294e-06
1.81208e-06
2.33731e-06
1.29865e-05
1.59803e-06
1.79992e-06
1.81831e-06
1.81752e-06
1.81537e-06
1.8134e-06
1.81171e-06
1.81033e-06
1.80931e-06
1.80865e-06
1.80836e-06
1.80842e-06
1.80882e-06
1.80949e-06
1.81041e-06
1.81152e-06
1.81275e-06
1.81406e-06
1.81535e-06
1.81657e-06
1.81764e-06
1.81848e-06
1.81903e-06
1.81924e-06
1.81905e-06
1.81848e-06
1.81748e-06
1.8161e-06
1.81437e-06
1.81234e-06
1.81007e-06
1.80763e-06
1.80509e-06
1.8025e-06
1.79993e-06
1.79741e-06
1.795e-06
1.79272e-06
1.7906e-06
1.78864e-06
1.78687e-06
1.78527e-06
1.78387e-06
1.78264e-06
1.78161e-06
1.78082e-06
1.7816e-06
1.81081e-06
2.33664e-06
1.29869e-05
1.63647e-06
1.84126e-06
1.84495e-06
1.83491e-06
1.82604e-06
1.81998e-06
1.81573e-06
1.81277e-06
1.8108e-06
1.8096e-06
1.80903e-06
1.80898e-06
1.80934e-06
1.81007e-06
1.81109e-06
1.81233e-06
1.81374e-06
1.81522e-06
1.81671e-06
1.81812e-06
1.81936e-06
1.82037e-06
1.82105e-06
1.82135e-06
1.82122e-06
1.82066e-06
1.81963e-06
1.81817e-06
1.81633e-06
1.81417e-06
1.81174e-06
1.80913e-06
1.80641e-06
1.80365e-06
1.80092e-06
1.79825e-06
1.79571e-06
1.7933e-06
1.79107e-06
1.78902e-06
1.78717e-06
1.78551e-06
1.78405e-06
1.78279e-06
1.78172e-06
1.78091e-06
1.78167e-06
1.81086e-06
2.33675e-06
1.29873e-05
1.77692e-06
1.95067e-06
1.90321e-06
1.86324e-06
1.84173e-06
1.82875e-06
1.82068e-06
1.8156e-06
1.81246e-06
1.81064e-06
1.80975e-06
1.80957e-06
1.80993e-06
1.81074e-06
1.81189e-06
1.8133e-06
1.81489e-06
1.81659e-06
1.8183e-06
1.81993e-06
1.82139e-06
1.82258e-06
1.82341e-06
1.82383e-06
1.82376e-06
1.82322e-06
1.82215e-06
1.82061e-06
1.81864e-06
1.81631e-06
1.8137e-06
1.8109e-06
1.80798e-06
1.80503e-06
1.8021e-06
1.79927e-06
1.79656e-06
1.79402e-06
1.79167e-06
1.78952e-06
1.78757e-06
1.78584e-06
1.78432e-06
1.78301e-06
1.7819e-06
1.78106e-06
1.7818e-06
1.81098e-06
2.33689e-06
1.29876e-05
2.33854e-06
2.31852e-06
2.03509e-06
1.91305e-06
1.86458e-06
1.83995e-06
1.82635e-06
1.81857e-06
1.81407e-06
1.81158e-06
1.81039e-06
1.81011e-06
1.81048e-06
1.81139e-06
1.8127e-06
1.8143e-06
1.81611e-06
1.81804e-06
1.82e-06
1.82187e-06
1.82356e-06
1.82496e-06
1.82597e-06
1.82651e-06
1.82652e-06
1.82599e-06
1.82488e-06
1.82324e-06
1.82114e-06
1.81863e-06
1.81582e-06
1.8128e-06
1.80967e-06
1.8065e-06
1.80337e-06
1.80035e-06
1.79748e-06
1.79479e-06
1.7923e-06
1.79004e-06
1.78801e-06
1.7862e-06
1.78461e-06
1.78325e-06
1.7821e-06
1.78122e-06
1.78194e-06
1.8111e-06
2.33704e-06
1.29879e-05
4.2631e-06
3.7284e-06
2.44097e-06
2.01642e-06
1.89842e-06
1.85342e-06
1.83227e-06
1.82135e-06
1.81546e-06
1.81234e-06
1.81089e-06
1.81055e-06
1.81097e-06
1.81201e-06
1.81348e-06
1.81529e-06
1.81734e-06
1.81952e-06
1.82174e-06
1.82387e-06
1.82581e-06
1.82743e-06
1.82862e-06
1.8293e-06
1.82938e-06
1.82887e-06
1.82772e-06
1.82598e-06
1.82372e-06
1.82103e-06
1.81801e-06
1.81476e-06
1.8114e-06
1.80801e-06
1.80467e-06
1.80145e-06
1.79841e-06
1.79556e-06
1.79295e-06
1.79057e-06
1.78844e-06
1.78655e-06
1.7849e-06
1.78349e-06
1.7823e-06
1.78139e-06
1.78208e-06
1.81124e-06
2.33718e-06
1.29881e-05
4.39251e-06
5.87254e-06
3.45213e-06
2.23673e-06
1.95153e-06
1.86868e-06
1.83751e-06
1.82342e-06
1.81637e-06
1.81279e-06
1.81119e-06
1.81086e-06
1.81136e-06
1.81255e-06
1.81421e-06
1.81623e-06
1.81852e-06
1.82096e-06
1.82344e-06
1.82583e-06
1.82802e-06
1.82986e-06
1.83124e-06
1.83206e-06
1.83222e-06
1.83172e-06
1.83053e-06
1.82869e-06
1.82628e-06
1.8234e-06
1.82016e-06
1.81669e-06
1.81309e-06
1.80948e-06
1.80593e-06
1.80253e-06
1.79931e-06
1.79631e-06
1.79357e-06
1.79108e-06
1.78886e-06
1.78689e-06
1.78518e-06
1.78371e-06
1.78248e-06
1.78155e-06
1.78221e-06
1.81135e-06
2.33733e-06
1.29883e-05
1.93315e-05
6.26307e-06
3.00334e-06
2.17127e-06
1.94448e-06
1.86867e-06
1.83798e-06
1.82364e-06
1.81641e-06
1.81279e-06
1.81123e-06
1.81099e-06
1.81162e-06
1.81297e-06
1.81482e-06
1.81706e-06
1.81958e-06
1.82227e-06
1.825e-06
1.82765e-06
1.83007e-06
1.83213e-06
1.83369e-06
1.83464e-06
1.83489e-06
1.8344e-06
1.83317e-06
1.83123e-06
1.82867e-06
1.82561e-06
1.82217e-06
1.81848e-06
1.81467e-06
1.81085e-06
1.8071e-06
1.80352e-06
1.80014e-06
1.797e-06
1.79414e-06
1.79155e-06
1.78924e-06
1.7872e-06
1.78543e-06
1.78392e-06
1.78266e-06
1.78169e-06
1.78233e-06
1.81146e-06
2.33745e-06
1.29883e-05
1.41476e-05
3.90314e-06
2.33697e-06
2.01497e-06
1.90492e-06
1.85712e-06
1.83394e-06
1.82192e-06
1.81554e-06
1.81229e-06
1.81096e-06
1.8109e-06
1.81171e-06
1.81324e-06
1.81528e-06
1.81772e-06
1.82046e-06
1.82337e-06
1.82633e-06
1.82921e-06
1.83185e-06
1.83411e-06
1.83584e-06
1.83691e-06
1.83723e-06
1.83676e-06
1.83549e-06
1.83346e-06
1.83077e-06
1.82755e-06
1.82392e-06
1.82004e-06
1.81604e-06
1.81203e-06
1.80811e-06
1.80437e-06
1.80085e-06
1.7976e-06
1.79463e-06
1.79195e-06
1.78957e-06
1.78747e-06
1.78565e-06
1.7841e-06
1.7828e-06
1.78181e-06
1.78243e-06
1.81155e-06
2.33757e-06
1.29883e-05
1.35899e-05
3.06819e-06
2.06346e-06
1.91839e-06
1.86916e-06
1.84288e-06
1.82769e-06
1.81887e-06
1.81389e-06
1.81133e-06
1.8104e-06
1.81058e-06
1.81161e-06
1.81332e-06
1.81554e-06
1.81816e-06
1.82108e-06
1.82419e-06
1.82735e-06
1.83042e-06
1.83324e-06
1.83567e-06
1.83754e-06
1.83871e-06
1.83909e-06
1.83864e-06
1.83734e-06
1.83524e-06
1.83245e-06
1.82909e-06
1.82532e-06
1.82128e-06
1.81712e-06
1.81296e-06
1.80891e-06
1.80504e-06
1.80141e-06
1.79806e-06
1.79501e-06
1.79226e-06
1.78982e-06
1.78767e-06
1.78582e-06
1.78423e-06
1.78291e-06
1.7819e-06
1.78251e-06
1.81162e-06
2.33766e-06
1.29882e-05
1.34612e-05
2.81297e-06
1.95712e-06
1.87032e-06
1.84593e-06
1.83118e-06
1.82152e-06
1.81544e-06
1.81186e-06
1.81007e-06
1.80958e-06
1.81004e-06
1.8113e-06
1.81317e-06
1.81555e-06
1.81832e-06
1.8214e-06
1.82465e-06
1.82796e-06
1.83118e-06
1.83414e-06
1.83669e-06
1.83866e-06
1.83992e-06
1.84035e-06
1.83991e-06
1.8386e-06
1.83645e-06
1.83358e-06
1.83014e-06
1.82627e-06
1.82212e-06
1.81786e-06
1.81359e-06
1.80945e-06
1.80549e-06
1.80178e-06
1.79837e-06
1.79526e-06
1.79246e-06
1.78998e-06
1.78781e-06
1.78592e-06
1.78432e-06
1.78298e-06
1.78196e-06
1.78256e-06
1.81167e-06
2.33772e-06
1.2988e-05
1.33835e-05
2.68823e-06
1.90806e-06
1.84404e-06
1.83051e-06
1.82206e-06
1.81605e-06
1.81206e-06
1.80969e-06
1.80861e-06
1.80855e-06
1.8093e-06
1.81077e-06
1.81279e-06
1.81529e-06
1.81818e-06
1.82135e-06
1.8247e-06
1.82811e-06
1.83141e-06
1.83446e-06
1.83709e-06
1.83912e-06
1.84043e-06
1.84089e-06
1.84047e-06
1.83916e-06
1.83699e-06
1.8341e-06
1.83061e-06
1.82669e-06
1.8225e-06
1.81819e-06
1.81388e-06
1.80969e-06
1.80569e-06
1.80195e-06
1.7985e-06
1.79537e-06
1.79255e-06
1.79005e-06
1.78786e-06
1.78597e-06
1.78435e-06
1.78301e-06
1.78198e-06
1.78258e-06
1.81168e-06
2.33776e-06
1.29878e-05
1.33254e-05
2.61152e-06
1.88125e-06
1.82818e-06
1.81997e-06
1.81507e-06
1.81142e-06
1.80893e-06
1.80751e-06
1.80705e-06
1.80736e-06
1.80839e-06
1.81002e-06
1.81216e-06
1.81475e-06
1.81771e-06
1.82094e-06
1.82433e-06
1.82776e-06
1.8311e-06
1.83417e-06
1.83682e-06
1.83887e-06
1.8402e-06
1.84068e-06
1.84027e-06
1.83898e-06
1.83683e-06
1.83395e-06
1.83048e-06
1.82657e-06
1.82239e-06
1.81809e-06
1.8138e-06
1.80961e-06
1.80563e-06
1.80189e-06
1.79845e-06
1.79533e-06
1.79252e-06
1.79002e-06
1.78784e-06
1.78595e-06
1.78433e-06
1.78299e-06
1.78197e-06
1.78257e-06
1.81168e-06
2.33776e-06
1.29876e-05
1.32793e-05
2.56007e-06
1.86487e-06
1.81791e-06
1.81252e-06
1.80969e-06
1.80754e-06
1.80611e-06
1.80542e-06
1.80542e-06
1.80606e-06
1.8073e-06
1.80907e-06
1.8113e-06
1.81393e-06
1.81691e-06
1.82013e-06
1.82351e-06
1.82692e-06
1.83023e-06
1.83327e-06
1.83588e-06
1.83791e-06
1.83922e-06
1.83971e-06
1.83932e-06
1.83806e-06
1.83595e-06
1.83314e-06
1.82974e-06
1.82591e-06
1.8218e-06
1.81757e-06
1.81335e-06
1.80923e-06
1.8053e-06
1.80162e-06
1.79823e-06
1.79514e-06
1.79236e-06
1.78989e-06
1.78773e-06
1.78586e-06
1.78426e-06
1.78293e-06
1.78191e-06
1.78252e-06
1.81163e-06
2.33774e-06
1.29873e-05
1.3241e-05
2.52383e-06
1.85407e-06
1.81086e-06
1.80705e-06
1.80546e-06
1.8043e-06
1.8036e-06
1.80343e-06
1.80379e-06
1.80469e-06
1.80609e-06
1.80794e-06
1.81021e-06
1.81285e-06
1.8158e-06
1.81897e-06
1.82228e-06
1.82561e-06
1.82883e-06
1.83178e-06
1.83431e-06
1.83628e-06
1.83755e-06
1.83802e-06
1.83765e-06
1.83644e-06
1.83442e-06
1.83171e-06
1.82843e-06
1.82473e-06
1.82076e-06
1.81666e-06
1.81256e-06
1.80855e-06
1.80473e-06
1.80114e-06
1.79783e-06
1.7948e-06
1.79209e-06
1.78967e-06
1.78755e-06
1.78571e-06
1.78414e-06
1.78283e-06
1.78183e-06
1.78244e-06
1.81157e-06
2.33769e-06
1.2987e-05
1.32083e-05
2.49721e-06
1.84651e-06
1.80577e-06
1.80291e-06
1.80208e-06
1.80155e-06
1.80135e-06
1.80155e-06
1.80219e-06
1.80326e-06
1.80476e-06
1.80667e-06
1.80894e-06
1.81154e-06
1.81442e-06
1.81751e-06
1.8207e-06
1.8239e-06
1.82698e-06
1.8298e-06
1.83222e-06
1.83409e-06
1.83529e-06
1.83574e-06
1.83539e-06
1.83424e-06
1.83233e-06
1.82975e-06
1.82663e-06
1.82311e-06
1.81932e-06
1.8154e-06
1.81147e-06
1.80762e-06
1.80394e-06
1.80048e-06
1.79728e-06
1.79435e-06
1.79171e-06
1.78936e-06
1.78729e-06
1.7855e-06
1.78397e-06
1.78269e-06
1.78171e-06