/*--------------------------------*- C++ -*----------------------------------*\
  =========                 |
  \\      /  F ield         | OpenFOAM: The Open Source CFD Toolbox
   \\    /   O peration     | Website:  https://openfoam.org
    \\  /    A nd           | Version:  12
     \\/     M anipulation  |
\*---------------------------------------------------------------------------*/
/*   Windows 32 and 64 bit porting by blueCAPE: http://www.bluecape.com.pt   *\
|  Based on Windows porting (2.0.x v4) by Symscape: http://www.symscape.com   |
\*---------------------------------------------------------------------------*/
FoamFile
{
    format      ascii;
    class       volScalarField;
    location    "1";
    object      k;
}
// * * * * * * * * * * * * * * * * * * * * * * * * * * * * * * * * * * * * * //

dimensions      [0 2 -2 0 0 0 0];

internalField   nonuniform List<scalar> 
34500
(
0.000143604
0.000141016
0.000140745
0.000140608
0.000140458
0.000140291
0.000140116
0.000139939
0.000139763
0.000139592
0.000139427
0.000139269
0.000139118
0.000138975
0.000138837
0.000138705
0.000138577
0.000138454
0.000138334
0.000138217
0.000138103
0.000137992
0.000137883
0.000137776
0.000137673
0.000137572
0.000137475
0.000137381
0.000137291
0.000137206
0.000137125
0.000137048
0.000136977
0.00013691
0.000136849
0.000136792
0.000136739
0.000136691
0.000136647
0.000136607
0.00013657
0.000136536
0.000136505
0.000136477
0.000136451
0.000136426
0.000136403
0.000136381
0.000136359
0.000136336
0.000143889
0.000141249
0.000140997
0.000140872
0.000140724
0.000140557
0.000140382
0.000140205
0.00014003
0.00013986
0.000139698
0.000139542
0.000139395
0.000139254
0.000139119
0.000138991
0.000138866
0.000138747
0.00013863
0.000138516
0.000138405
0.000138297
0.000138191
0.000138087
0.000137987
0.000137888
0.000137794
0.000137702
0.000137615
0.000137532
0.000137453
0.000137379
0.000137309
0.000137244
0.000137184
0.000137129
0.000137078
0.000137032
0.000136989
0.00013695
0.000136914
0.000136882
0.000136852
0.000136824
0.000136799
0.000136775
0.000136753
0.000136729
0.000136653
0.000136343
0.000143976
0.000141434
0.000141157
0.000141012
0.000140848
0.000140669
0.000140483
0.000140298
0.000140116
0.000139943
0.000139777
0.00013962
0.000139472
0.000139331
0.000139197
0.000139069
0.000138946
0.000138827
0.000138711
0.000138599
0.000138489
0.000138381
0.000138276
0.000138173
0.000138073
0.000137975
0.000137881
0.00013779
0.000137703
0.00013762
0.000137542
0.000137468
0.000137399
0.000137335
0.000137275
0.00013722
0.00013717
0.000137124
0.000137081
0.000137043
0.000137008
0.000136975
0.000136946
0.000136919
0.000136894
0.000136871
0.000136849
0.000136823
0.000136711
0.000136347
0.000144137
0.000141605
0.000141296
0.000141116
0.000140921
0.000140717
0.000140511
0.000140311
0.00014012
0.00013994
0.000139771
0.000139613
0.000139463
0.000139323
0.00013919
0.000139062
0.00013894
0.000138822
0.000138708
0.000138596
0.000138487
0.00013838
0.000138276
0.000138173
0.000138073
0.000137976
0.000137882
0.000137791
0.000137704
0.000137622
0.000137543
0.00013747
0.000137401
0.000137337
0.000137277
0.000137223
0.000137172
0.000137127
0.000137085
0.000137046
0.000137012
0.00013698
0.000136951
0.000136924
0.000136899
0.000136877
0.000136855
0.000136829
0.000136716
0.000136351
0.000144394
0.00014187
0.000141496
0.000141257
0.000141012
0.000140769
0.000140536
0.000140316
0.000140113
0.000139925
0.000139752
0.000139592
0.000139443
0.000139303
0.000139171
0.000139045
0.000138925
0.000138809
0.000138696
0.000138585
0.000138478
0.000138372
0.000138268
0.000138166
0.000138067
0.00013797
0.000137876
0.000137785
0.000137699
0.000137616
0.000137538
0.000137464
0.000137396
0.000137332
0.000137273
0.000137219
0.000137169
0.000137123
0.000137082
0.000137044
0.000137009
0.000136978
0.000136949
0.000136923
0.000136899
0.000136877
0.000136856
0.000136831
0.000136719
0.000136355
0.000144837
0.000142297
0.000141791
0.000141448
0.000141126
0.000140828
0.000140558
0.000140315
0.000140097
0.000139902
0.000139725
0.000139563
0.000139414
0.000139276
0.000139146
0.000139022
0.000138904
0.00013879
0.000138679
0.000138571
0.000138465
0.00013836
0.000138257
0.000138156
0.000138058
0.000137961
0.000137868
0.000137777
0.000137691
0.000137609
0.000137531
0.000137457
0.000137389
0.000137326
0.000137267
0.000137213
0.000137164
0.000137119
0.000137078
0.00013704
0.000137006
0.000136976
0.000136947
0.000136922
0.000136898
0.000136876
0.000136856
0.000136832
0.000136721
0.000136359
0.000145721
0.000143063
0.000142236
0.0001417
0.000141258
0.000140885
0.000140569
0.000140301
0.000140069
0.000139866
0.000139686
0.000139524
0.000139377
0.000139241
0.000139114
0.000138994
0.000138879
0.000138767
0.000138659
0.000138553
0.000138448
0.000138345
0.000138244
0.000138144
0.000138046
0.00013795
0.000137857
0.000137767
0.000137681
0.000137599
0.000137522
0.000137449
0.000137381
0.000137318
0.00013726
0.000137206
0.000137158
0.000137113
0.000137073
0.000137036
0.000137003
0.000136972
0.000136945
0.00013692
0.000136897
0.000136876
0.000136856
0.000136833
0.000136723
0.000136362
0.000147979
0.000144784
0.000142977
0.00014203
0.000141398
0.000140927
0.00014056
0.000140266
0.000140022
0.000139814
0.000139634
0.000139475
0.000139331
0.000139199
0.000139075
0.000138959
0.000138847
0.000138739
0.000138634
0.000138531
0.000138429
0.000138328
0.000138228
0.000138129
0.000138032
0.000137937
0.000137845
0.000137755
0.00013767
0.000137588
0.000137511
0.000137439
0.000137371
0.000137309
0.000137251
0.000137199
0.00013715
0.000137107
0.000137067
0.000137031
0.000136998
0.000136969
0.000136942
0.000136917
0.000136895
0.000136875
0.000136856
0.000136834
0.000136725
0.000136365
0.000154456
0.000150508
0.000144581
0.000142479
0.000141519
0.000140928
0.000140515
0.000140201
0.000139951
0.000139744
0.000139568
0.000139413
0.000139274
0.000139148
0.00013903
0.000138918
0.000138811
0.000138707
0.000138605
0.000138505
0.000138405
0.000138306
0.000138208
0.000138111
0.000138016
0.000137922
0.00013783
0.000137741
0.000137656
0.000137575
0.000137499
0.000137427
0.00013736
0.000137299
0.000137242
0.00013719
0.000137143
0.0001371
0.000137061
0.000137025
0.000136993
0.000136965
0.000136938
0.000136915
0.000136893
0.000136873
0.000136855
0.000136834
0.000136726
0.000136367
0.000154757
0.000157478
0.000148619
0.00014322
0.00014159
0.000140862
0.000140414
0.000140097
0.000139853
0.000139654
0.000139485
0.000139339
0.000139208
0.000139088
0.000138976
0.00013887
0.000138768
0.000138669
0.000138571
0.000138475
0.000138378
0.000138282
0.000138186
0.000138091
0.000137996
0.000137904
0.000137813
0.000137725
0.000137641
0.000137561
0.000137485
0.000137414
0.000137348
0.000137287
0.000137231
0.00013718
0.000137134
0.000137092
0.000137054
0.000137019
0.000136988
0.00013696
0.000136935
0.000136912
0.000136891
0.000136872
0.000136855
0.000136834
0.000136727
0.000136369
0.000147795
0.000149094
0.000145506
0.000142502
0.000141275
0.000140638
0.000140237
0.00013995
0.000139726
0.000139543
0.000139388
0.000139252
0.000139131
0.00013902
0.000138916
0.000138816
0.00013872
0.000138626
0.000138533
0.00013844
0.000138347
0.000138254
0.00013816
0.000138067
0.000137975
0.000137883
0.000137794
0.000137707
0.000137624
0.000137545
0.00013747
0.0001374
0.000137335
0.000137275
0.00013722
0.00013717
0.000137124
0.000137083
0.000137046
0.000137012
0.000136982
0.000136955
0.00013693
0.000136908
0.000136888
0.00013687
0.000136853
0.000136833
0.000136727
0.000136369
0.000141926
0.000143222
0.000142553
0.000141449
0.000140769
0.000140326
0.00014001
0.000139769
0.000139576
0.000139415
0.000139277
0.000139156
0.000139046
0.000138944
0.000138849
0.000138757
0.000138667
0.000138579
0.000138491
0.000138402
0.000138313
0.000138223
0.000138132
0.000138041
0.000137951
0.000137861
0.000137773
0.000137688
0.000137606
0.000137528
0.000137454
0.000137385
0.000137321
0.000137262
0.000137208
0.000137159
0.000137115
0.000137074
0.000137038
0.000137006
0.000136976
0.00013695
0.000136926
0.000136904
0.000136885
0.000136868
0.000136852
0.000136832
0.000136727
0.000136369
0.000140614
0.000141268
0.000141152
0.000140687
0.000140298
0.000139999
0.000139762
0.000139571
0.000139412
0.000139276
0.000139157
0.000139051
0.000138953
0.000138863
0.000138776
0.000138692
0.00013861
0.000138527
0.000138444
0.00013836
0.000138275
0.000138188
0.000138101
0.000138012
0.000137924
0.000137836
0.00013775
0.000137667
0.000137586
0.000137509
0.000137437
0.000137369
0.000137306
0.000137249
0.000137196
0.000137148
0.000137105
0.000137065
0.00013703
0.000136998
0.00013697
0.000136944
0.000136921
0.000136901
0.000136882
0.000136865
0.00013685
0.000136831
0.000136726
0.000136368
0.000139941
0.000140344
0.000140352
0.000140124
0.000139889
0.000139687
0.000139515
0.000139368
0.000139241
0.00013913
0.00013903
0.00013894
0.000138856
0.000138776
0.000138699
0.000138624
0.000138548
0.000138472
0.000138394
0.000138315
0.000138234
0.000138152
0.000138067
0.000137982
0.000137896
0.000137811
0.000137727
0.000137645
0.000137566
0.000137491
0.00013742
0.000137353
0.000137292
0.000137236
0.000137184
0.000137137
0.000137095
0.000137057
0.000137022
0.000136992
0.000136964
0.000136939
0.000136917
0.000136897
0.000136879
0.000136862
0.000136847
0.000136829
0.000136724
0.000136367
0.000139416
0.000139754
0.000139807
0.000139682
0.000139535
0.000139399
0.000139277
0.000139167
0.000139069
0.000138981
0.000138901
0.000138826
0.000138755
0.000138686
0.000138619
0.000138552
0.000138484
0.000138414
0.000138342
0.000138268
0.000138192
0.000138113
0.000138032
0.00013795
0.000137867
0.000137784
0.000137702
0.000137622
0.000137546
0.000137472
0.000137403
0.000137338
0.000137278
0.000137223
0.000137173
0.000137127
0.000137086
0.000137048
0.000137015
0.000136985
0.000136958
0.000136934
0.000136912
0.000136893
0.000136875
0.000136859
0.000136845
0.000136827
0.000136722
0.000136366
0.000138997
0.000139316
0.000139392
0.000139321
0.000139229
0.000139138
0.000139053
0.000138974
0.000138901
0.000138834
0.000138771
0.000138711
0.000138652
0.000138595
0.000138537
0.000138478
0.000138417
0.000138354
0.000138288
0.000138219
0.000138147
0.000138073
0.000137995
0.000137917
0.000137837
0.000137757
0.000137677
0.0001376
0.000137525
0.000137454
0.000137386
0.000137323
0.000137264
0.000137211
0.000137162
0.000137117
0.000137077
0.000137041
0.000137008
0.000136979
0.000136953
0.000136929
0.000136908
0.000136889
0.000136872
0.000136857
0.000136843
0.000136825
0.00013672
0.000136363
0.000138654
0.000138968
0.000139056
0.000139017
0.000138961
0.000138902
0.000138845
0.000138791
0.000138739
0.00013869
0.000138643
0.000138596
0.00013855
0.000138503
0.000138454
0.000138404
0.00013835
0.000138293
0.000138233
0.000138169
0.000138102
0.000138032
0.000137959
0.000137883
0.000137807
0.00013773
0.000137653
0.000137579
0.000137506
0.000137437
0.000137371
0.000137309
0.000137252
0.0001372
0.000137152
0.000137108
0.000137069
0.000137034
0.000137002
0.000136973
0.000136948
0.000136925
0.000136904
0.000136886
0.000136869
0.000136854
0.00013684
0.000136823
0.000136718
0.000136361
0.000138363
0.000138679
0.000138775
0.000138757
0.000138724
0.000138689
0.000138654
0.000138619
0.000138586
0.000138552
0.000138519
0.000138485
0.00013845
0.000138412
0.000138373
0.00013833
0.000138283
0.000138233
0.000138178
0.00013812
0.000138057
0.000137991
0.000137922
0.00013785
0.000137777
0.000137703
0.00013763
0.000137558
0.000137487
0.00013742
0.000137356
0.000137297
0.000137241
0.00013719
0.000137143
0.000137101
0.000137062
0.000137028
0.000136997
0.000136969
0.000136944
0.000136921
0.000136901
0.000136883
0.000136866
0.000136851
0.000136838
0.00013682
0.000136715
0.000136358
0.000138112
0.00013843
0.000138533
0.000138528
0.000138513
0.000138495
0.000138477
0.000138459
0.00013844
0.000138421
0.0001384
0.000138378
0.000138352
0.000138324
0.000138293
0.000138257
0.000138217
0.000138173
0.000138124
0.000138071
0.000138013
0.000137952
0.000137887
0.000137819
0.000137749
0.000137678
0.000137608
0.000137539
0.000137471
0.000137406
0.000137344
0.000137286
0.000137232
0.000137182
0.000137136
0.000137095
0.000137057
0.000137023
0.000136992
0.000136965
0.00013694
0.000136918
0.000136898
0.00013688
0.000136864
0.000136849
0.000136836
0.000136818
0.000136713
0.000136356
0.00013789
0.000138213
0.00013832
0.000138325
0.000138323
0.000138319
0.000138315
0.000138311
0.000138305
0.000138297
0.000138288
0.000138275
0.000138259
0.00013824
0.000138216
0.000138188
0.000138154
0.000138116
0.000138072
0.000138024
0.000137971
0.000137913
0.000137852
0.000137788
0.000137722
0.000137655
0.000137588
0.000137521
0.000137456
0.000137393
0.000137333
0.000137277
0.000137224
0.000137175
0.000137131
0.00013709
0.000137053
0.000137019
0.000136989
0.000136962
0.000136938
0.000136916
0.000136896
0.000136878
0.000136862
0.000136847
0.000136834
0.000136816
0.000136711
0.000136353
0.000137691
0.000138018
0.00013813
0.000138143
0.000138151
0.000138159
0.000138166
0.000138173
0.000138179
0.000138182
0.000138182
0.000138179
0.000138172
0.00013816
0.000138143
0.000138121
0.000138094
0.000138061
0.000138023
0.000137979
0.00013793
0.000137877
0.00013782
0.00013776
0.000137697
0.000137633
0.000137569
0.000137505
0.000137442
0.000137381
0.000137323
0.000137269
0.000137217
0.00013717
0.000137126
0.000137086
0.00013705
0.000137017
0.000136987
0.00013696
0.000136936
0.000136914
0.000136895
0.000136877
0.000136861
0.000136846
0.000136832
0.000136814
0.000136709
0.00013635
0.00013751
0.000137842
0.000137957
0.000137978
0.000137994
0.000138012
0.00013803
0.000138047
0.000138062
0.000138075
0.000138084
0.00013809
0.00013809
0.000138086
0.000138075
0.000138059
0.000138038
0.00013801
0.000137976
0.000137937
0.000137893
0.000137843
0.00013779
0.000137733
0.000137674
0.000137613
0.000137552
0.00013749
0.00013743
0.000137371
0.000137315
0.000137262
0.000137212
0.000137166
0.000137123
0.000137083
0.000137048
0.000137015
0.000136986
0.000136959
0.000136935
0.000136913
0.000136894
0.000136876
0.00013686
0.000136845
0.000136831
0.000136813
0.000136707
0.000136348
0.000137344
0.000137681
0.0001378
0.000137827
0.000137852
0.000137878
0.000137905
0.000137931
0.000137956
0.000137977
0.000137995
0.000138008
0.000138015
0.000138017
0.000138013
0.000138003
0.000137986
0.000137963
0.000137934
0.000137899
0.000137858
0.000137813
0.000137763
0.00013771
0.000137654
0.000137596
0.000137537
0.000137478
0.00013742
0.000137363
0.000137309
0.000137257
0.000137208
0.000137163
0.000137121
0.000137082
0.000137046
0.000137014
0.000136985
0.000136958
0.000136934
0.000136913
0.000136893
0.000136875
0.000136859
0.000136844
0.00013683
0.000136812
0.000136705
0.000136346
0.000137188
0.000137531
0.000137655
0.000137689
0.000137721
0.000137756
0.000137792
0.000137827
0.00013786
0.000137889
0.000137914
0.000137934
0.000137948
0.000137956
0.000137957
0.000137952
0.00013794
0.000137921
0.000137896
0.000137865
0.000137828
0.000137786
0.000137739
0.000137689
0.000137636
0.00013758
0.000137524
0.000137467
0.000137411
0.000137356
0.000137303
0.000137253
0.000137205
0.000137161
0.000137119
0.000137081
0.000137046
0.000137014
0.000136985
0.000136958
0.000136934
0.000136913
0.000136893
0.000136875
0.000136859
0.000136844
0.00013683
0.000136811
0.000136704
0.000136344
0.000137043
0.000137391
0.00013752
0.000137561
0.000137602
0.000137646
0.00013769
0.000137734
0.000137775
0.000137812
0.000137843
0.00013787
0.000137889
0.000137902
0.000137908
0.000137907
0.000137899
0.000137884
0.000137863
0.000137835
0.000137801
0.000137762
0.000137718
0.000137671
0.00013762
0.000137567
0.000137513
0.000137458
0.000137404
0.000137351
0.000137299
0.00013725
0.000137203
0.000137159
0.000137118
0.00013708
0.000137045
0.000137014
0.000136985
0.000136958
0.000136934
0.000136913
0.000136893
0.000136875
0.000136859
0.000136844
0.000136829
0.00013681
0.000136703
0.000136342
0.000136904
0.000137259
0.000137395
0.000137445
0.000137495
0.000137548
0.000137601
0.000137653
0.000137701
0.000137745
0.000137783
0.000137814
0.000137839
0.000137857
0.000137867
0.00013787
0.000137865
0.000137853
0.000137835
0.00013781
0.000137779
0.000137742
0.000137701
0.000137655
0.000137607
0.000137556
0.000137504
0.000137451
0.000137398
0.000137346
0.000137296
0.000137247
0.000137201
0.000137158
0.000137118
0.00013708
0.000137046
0.000137014
0.000136985
0.000136959
0.000136935
0.000136913
0.000136893
0.000136875
0.000136859
0.000136844
0.000136829
0.00013681
0.000136702
0.000136341
0.000136771
0.000137135
0.00013728
0.000137341
0.000137401
0.000137464
0.000137526
0.000137585
0.00013764
0.000137689
0.000137732
0.000137769
0.000137798
0.000137819
0.000137833
0.000137839
0.000137837
0.000137828
0.000137812
0.000137789
0.00013776
0.000137726
0.000137687
0.000137643
0.000137596
0.000137547
0.000137496
0.000137445
0.000137393
0.000137343
0.000137293
0.000137245
0.0001372
0.000137157
0.000137117
0.00013708
0.000137046
0.000137014
0.000136985
0.000136959
0.000136935
0.000136913
0.000136893
0.000136875
0.000136859
0.000136843
0.000136829
0.00013681
0.000136702
0.00013634
0.000136643
0.000137016
0.000137172
0.000137245
0.000137318
0.00013739
0.00013746
0.000137526
0.000137587
0.000137641
0.000137689
0.000137729
0.000137761
0.000137785
0.000137802
0.00013781
0.000137811
0.000137804
0.00013779
0.000137769
0.000137741
0.000137708
0.000137671
0.000137629
0.000137583
0.000137535
0.000137486
0.000137435
0.000137385
0.000137334
0.000137286
0.000137239
0.000137194
0.000137151
0.000137111
0.000137074
0.00013704
0.000137009
0.00013698
0.000136954
0.00013693
0.000136908
0.000136888
0.00013687
0.000136853
0.000136838
0.000136823
0.000136804
0.000136699
0.000136339
0.000136519
0.000136858
0.000136995
0.000137081
0.000137166
0.000137248
0.000137325
0.000137398
0.000137464
0.000137522
0.000137573
0.000137617
0.000137652
0.000137678
0.000137697
0.000137707
0.000137709
0.000137704
0.000137691
0.000137671
0.000137645
0.000137613
0.000137576
0.000137534
0.000137489
0.000137442
0.000137393
0.000137342
0.000137292
0.000137242
0.000137193
0.000137146
0.000137101
0.000137059
0.000137019
0.000136982
0.000136947
0.000136916
0.000136887
0.00013686
0.000136836
0.000136814
0.000136794
0.000136775
0.000136758
0.000136743
0.000136728
0.000136711
0.000136642
0.000136338
0.000136407
0.000136495
0.000136595
0.000136693
0.000136788
0.000136878
0.000136963
0.000137041
0.000137112
0.000137175
0.00013723
0.000137276
0.000137314
0.000137343
0.000137364
0.000137376
0.000137379
0.000137374
0.000137362
0.000137342
0.000137316
0.000137283
0.000137246
0.000137203
0.000137158
0.000137109
0.000137059
0.000137008
0.000136957
0.000136906
0.000136856
0.000136808
0.000136762
0.000136718
0.000136677
0.000136639
0.000136603
0.000136571
0.000136541
0.000136513
0.000136488
0.000136466
0.000136445
0.000136426
0.000136408
0.000136392
0.000136377
0.000136363
0.000136349
0.000136333
0.000143783
0.000141253
0.000140988
0.000140856
0.000140712
0.00014055
0.00014038
0.000140206
0.000140034
0.000139866
0.000139704
0.000139549
0.000139402
0.000139261
0.000139126
0.000138997
0.000138873
0.000138752
0.000138636
0.000138522
0.000138411
0.000138302
0.000138195
0.000138091
0.00013799
0.000137892
0.000137797
0.000137705
0.000137617
0.000137534
0.000137455
0.00013738
0.000137311
0.000137246
0.000137186
0.00013713
0.000137079
0.000137032
0.00013699
0.000136951
0.000136915
0.000136883
0.000136853
0.000136826
0.0001368
0.000136777
0.000136755
0.000136732
0.000136658
0.000136352
0.000148765
0.000147916
0.000147857
0.000147939
0.000148017
0.000148052
0.00014805
0.000148025
0.000147981
0.000147931
0.00014788
0.000147831
0.000147787
0.000147749
0.000147716
0.000147687
0.000147663
0.000147643
0.000147626
0.00014761
0.000147597
0.000147584
0.000147571
0.000147559
0.000147547
0.000147534
0.000147521
0.000147508
0.000147495
0.000147482
0.00014747
0.000147458
0.000147446
0.000147436
0.000147426
0.000147418
0.000147411
0.000147404
0.000147399
0.000147394
0.00014739
0.000147387
0.000147385
0.000147382
0.00014738
0.000147378
0.000147375
0.000147344
0.000146832
0.000136653
0.000149057
0.000148762
0.000148766
0.000148842
0.000148908
0.000148926
0.000148904
0.00014885
0.000148779
0.000148702
0.000148628
0.000148559
0.000148499
0.000148447
0.000148404
0.000148368
0.000148338
0.000148313
0.000148292
0.000148275
0.00014826
0.000148246
0.000148233
0.000148219
0.000148206
0.000148192
0.000148178
0.000148164
0.000148149
0.000148134
0.000148119
0.000148105
0.000148091
0.000148079
0.000148068
0.000148058
0.000148049
0.000148042
0.000148036
0.00014803
0.000148026
0.000148022
0.000148019
0.000148017
0.000148015
0.000148013
0.000148009
0.000147965
0.000147348
0.000136712
0.000149554
0.000149349
0.000149293
0.000149278
0.000149253
0.000149195
0.000149109
0.000149007
0.000148901
0.0001488
0.000148708
0.000148628
0.000148559
0.000148502
0.000148455
0.000148416
0.000148385
0.00014836
0.000148339
0.000148322
0.000148307
0.000148293
0.00014828
0.000148268
0.000148255
0.000148241
0.000148227
0.000148212
0.000148197
0.000148181
0.000148166
0.000148152
0.000148138
0.000148125
0.000148114
0.000148103
0.000148095
0.000148087
0.00014808
0.000148075
0.000148071
0.000148067
0.000148064
0.000148061
0.000148059
0.000148057
0.000148053
0.000148008
0.000147378
0.000136718
0.000150601
0.000150529
0.0001502
0.000149929
0.000149706
0.000149501
0.000149309
0.000149134
0.000148979
0.000148845
0.000148733
0.000148639
0.000148563
0.000148501
0.000148452
0.000148412
0.000148381
0.000148356
0.000148336
0.000148319
0.000148305
0.000148293
0.000148281
0.000148269
0.000148257
0.000148244
0.00014823
0.000148215
0.0001482
0.000148184
0.000148169
0.000148154
0.000148141
0.000148128
0.000148116
0.000148106
0.000148097
0.000148089
0.000148083
0.000148077
0.000148073
0.000148069
0.000148066
0.000148064
0.000148062
0.00014806
0.000148056
0.00014801
0.000147379
0.000136721
0.000153518
0.000153311
0.000151975
0.000151037
0.000150404
0.000149932
0.00014957
0.000149288
0.000149066
0.000148892
0.000148754
0.000148646
0.000148562
0.000148495
0.000148443
0.000148403
0.000148371
0.000148347
0.000148328
0.000148312
0.0001483
0.000148289
0.000148278
0.000148267
0.000148256
0.000148244
0.00014823
0.000148216
0.000148201
0.000148185
0.00014817
0.000148155
0.00014814
0.000148127
0.000148116
0.000148105
0.000148096
0.000148088
0.000148082
0.000148077
0.000148072
0.000148068
0.000148066
0.000148063
0.000148061
0.00014806
0.000148056
0.00014801
0.000147379
0.000136724
0.000163222
0.000161171
0.00015572
0.000152976
0.000151471
0.000150527
0.000149901
0.000149469
0.000149162
0.000148939
0.000148775
0.000148651
0.000148558
0.000148487
0.000148433
0.000148392
0.000148361
0.000148337
0.000148319
0.000148305
0.000148294
0.000148285
0.000148275
0.000148266
0.000148256
0.000148244
0.000148231
0.000148217
0.000148202
0.000148186
0.00014817
0.000148155
0.00014814
0.000148127
0.000148115
0.000148105
0.000148095
0.000148088
0.000148081
0.000148076
0.000148071
0.000148068
0.000148065
0.000148063
0.000148061
0.000148059
0.000148055
0.00014801
0.000147379
0.000136727
0.000198504
0.000186505
0.000164787
0.000156477
0.000153065
0.000151304
0.000150287
0.000149662
0.000149256
0.000148982
0.00014879
0.000148652
0.000148551
0.000148476
0.000148421
0.00014838
0.000148349
0.000148327
0.00014831
0.000148298
0.000148289
0.000148281
0.000148273
0.000148265
0.000148256
0.000148245
0.000148232
0.000148218
0.000148203
0.000148187
0.000148171
0.000148155
0.000148141
0.000148127
0.000148115
0.000148104
0.000148095
0.000148087
0.00014808
0.000148075
0.000148071
0.000148067
0.000148064
0.000148062
0.00014806
0.000148059
0.000148055
0.000148009
0.000147379
0.000136729
0.000299435
0.000268709
0.000191646
0.000163715
0.000155441
0.000152235
0.000150685
0.000149837
0.000149332
0.00014901
0.000148795
0.000148646
0.00014854
0.000148463
0.000148408
0.000148367
0.000148338
0.000148317
0.000148302
0.000148291
0.000148284
0.000148278
0.000148272
0.000148265
0.000148257
0.000148247
0.000148234
0.00014822
0.000148205
0.000148189
0.000148172
0.000148156
0.000148141
0.000148127
0.000148114
0.000148103
0.000148094
0.000148086
0.000148079
0.000148074
0.00014807
0.000148066
0.000148064
0.000148061
0.00014806
0.000148058
0.000148054
0.000148009
0.000147378
0.00013673
0.000275875
0.000358185
0.000245876
0.000177419
0.000158903
0.000153217
0.000151004
0.000149948
0.000149368
0.000149016
0.000148788
0.000148633
0.000148525
0.000148448
0.000148393
0.000148354
0.000148326
0.000148306
0.000148293
0.000148285
0.000148279
0.000148275
0.00014827
0.000148265
0.000148258
0.000148249
0.000148237
0.000148223
0.000148207
0.00014819
0.000148173
0.000148157
0.000148141
0.000148127
0.000148114
0.000148102
0.000148093
0.000148085
0.000148078
0.000148073
0.000148069
0.000148066
0.000148063
0.000148061
0.000148059
0.000148058
0.000148054
0.000148009
0.000147378
0.000136731
0.000183683
0.000262602
0.000211355
0.000172073
0.000158089
0.000153055
0.000150951
0.000149917
0.000149341
0.000148992
0.000148766
0.000148613
0.000148507
0.000148432
0.000148378
0.000148341
0.000148314
0.000148297
0.000148286
0.000148279
0.000148275
0.000148272
0.00014827
0.000148266
0.000148259
0.000148251
0.000148239
0.000148225
0.000148209
0.000148192
0.000148175
0.000148157
0.000148141
0.000148126
0.000148113
0.000148102
0.000148092
0.000148084
0.000148078
0.000148072
0.000148068
0.000148065
0.000148062
0.00014806
0.000148059
0.000148057
0.000148054
0.000148008
0.000147378
0.000136732
0.000145868
0.000179167
0.000173954
0.000161746
0.000155283
0.000152182
0.000150623
0.000149767
0.00014926
0.000148941
0.00014873
0.000148586
0.000148485
0.000148414
0.000148363
0.000148328
0.000148304
0.000148288
0.000148278
0.000148273
0.000148271
0.00014827
0.000148269
0.000148266
0.000148261
0.000148252
0.000148241
0.000148227
0.000148211
0.000148193
0.000148175
0.000148158
0.000148141
0.000148126
0.000148112
0.000148101
0.000148091
0.000148083
0.000148077
0.000148071
0.000148067
0.000148064
0.000148062
0.00014806
0.000148058
0.000148057
0.000148053
0.000148008
0.000147378
0.000136732
0.000141374
0.000159164
0.000159713
0.000155891
0.000152984
0.000151245
0.000150204
0.000149559
0.000149146
0.000148872
0.000148685
0.000148554
0.000148462
0.000148396
0.000148348
0.000148316
0.000148293
0.000148279
0.000148272
0.000148268
0.000148267
0.000148267
0.000148267
0.000148265
0.000148261
0.000148253
0.000148242
0.000148228
0.000148212
0.000148194
0.000148176
0.000148158
0.000148141
0.000148125
0.000148112
0.0001481
0.00014809
0.000148082
0.000148076
0.000148071
0.000148067
0.000148063
0.000148061
0.000148059
0.000148058
0.000148056
0.000148053
0.000148008
0.000147377
0.000136731
0.000140373
0.000153113
0.000154353
0.000152945
0.000151529
0.000150515
0.000149822
0.00014935
0.000149024
0.000148797
0.000148636
0.00014852
0.000148437
0.000148377
0.000148334
0.000148303
0.000148283
0.000148271
0.000148265
0.000148262
0.000148262
0.000148264
0.000148264
0.000148263
0.00014826
0.000148252
0.000148242
0.000148228
0.000148211
0.000148193
0.000148175
0.000148157
0.000148139
0.000148124
0.00014811
0.000148099
0.000148089
0.000148081
0.000148075
0.00014807
0.000148066
0.000148063
0.00014806
0.000148059
0.000148057
0.000148056
0.000148053
0.000148008
0.000147377
0.00013673
0.00013978
0.00015076
0.000151957
0.000151349
0.000150588
0.000149969
0.000149502
0.000149158
0.000148906
0.000148721
0.000148586
0.000148486
0.000148412
0.000148358
0.000148319
0.000148291
0.000148273
0.000148262
0.000148257
0.000148256
0.000148257
0.000148258
0.00014826
0.000148259
0.000148256
0.000148249
0.000148239
0.000148225
0.000148209
0.000148191
0.000148173
0.000148155
0.000148138
0.000148122
0.000148109
0.000148097
0.000148088
0.00014808
0.000148074
0.000148069
0.000148065
0.000148062
0.00014806
0.000148058
0.000148057
0.000148056
0.000148052
0.000148007
0.000147377
0.000136728
0.000139335
0.000149594
0.000150686
0.000150399
0.000149958
0.000149565
0.000149245
0.000148993
0.000148799
0.00014865
0.000148537
0.000148451
0.000148387
0.000148339
0.000148304
0.000148279
0.000148263
0.000148253
0.000148249
0.000148248
0.000148249
0.000148252
0.000148253
0.000148253
0.00014825
0.000148244
0.000148234
0.00014822
0.000148205
0.000148187
0.000148169
0.000148152
0.000148135
0.00014812
0.000148107
0.000148096
0.000148086
0.000148079
0.000148073
0.000148068
0.000148064
0.000148062
0.000148059
0.000148058
0.000148057
0.000148055
0.000148052
0.000148007
0.000147377
0.000136726
0.000138981
0.000148929
0.000149933
0.000149796
0.000149525
0.000149264
0.00014904
0.000148854
0.000148704
0.000148584
0.00014849
0.000148418
0.000148362
0.000148319
0.000148288
0.000148266
0.000148251
0.000148243
0.000148239
0.000148238
0.00014824
0.000148242
0.000148244
0.000148244
0.000148242
0.000148236
0.000148226
0.000148213
0.000148198
0.000148182
0.000148165
0.000148148
0.000148132
0.000148117
0.000148105
0.000148094
0.000148085
0.000148078
0.000148072
0.000148067
0.000148064
0.000148061
0.000148059
0.000148057
0.000148056
0.000148055
0.000148052
0.000148007
0.000147376
0.000136724
0.000138686
0.000148519
0.000149455
0.000149394
0.000149218
0.00014904
0.000148878
0.000148739
0.000148621
0.000148525
0.000148447
0.000148385
0.000148337
0.0001483
0.000148272
0.000148252
0.000148239
0.000148231
0.000148228
0.000148228
0.000148229
0.000148231
0.000148233
0.000148233
0.000148231
0.000148225
0.000148216
0.000148205
0.00014819
0.000148175
0.000148159
0.000148143
0.000148128
0.000148114
0.000148102
0.000148092
0.000148084
0.000148077
0.000148071
0.000148067
0.000148063
0.000148061
0.000148059
0.000148057
0.000148056
0.000148055
0.000148052
0.000148007
0.000147376
0.000136722
0.000138434
0.00014825
0.000149135
0.000149115
0.000148997
0.000148869
0.00014875
0.000148643
0.000148551
0.000148472
0.000148408
0.000148355
0.000148313
0.00014828
0.000148255
0.000148238
0.000148226
0.000148219
0.000148216
0.000148215
0.000148217
0.000148219
0.00014822
0.00014822
0.000148218
0.000148213
0.000148205
0.000148194
0.000148181
0.000148167
0.000148152
0.000148137
0.000148123
0.000148111
0.0001481
0.00014809
0.000148082
0.000148075
0.00014807
0.000148066
0.000148063
0.00014806
0.000148058
0.000148057
0.000148056