/*--------------------------------*- C++ -*----------------------------------*\
  =========                 |
  \\      /  F ield         | OpenFOAM: The Open Source CFD Toolbox
   \\    /   O peration     | Website:  https://openfoam.org
    \\  /    A nd           | Version:  12
     \\/     M anipulation  |
\*---------------------------------------------------------------------------*/
/*   Windows 32 and 64 bit porting by blueCAPE: http://www.bluecape.com.pt   *\
|  Based on Windows porting (2.0.x v4) by Symscape: http://www.symscape.com   |
\*---------------------------------------------------------------------------*/
FoamFile
{
    format      ascii;
    class       volScalarField;
    location    "1";
    object      nut;
}
// * * * * * * * * * * * * * * * * * * * * * * * * * * * * * * * * * * * * * //

dimensions      [0 2 -1 0 0 0 0];

internalField   nonuniform List<scalar> 
34500
(
0.00013396
0.000132177
0.00013198
0.000131894
0.000131803
0.000131702
0.000131596
0.000131487
0.00013138
0.000131276
0.000131175
0.000131078
0.000130986
0.000130898
0.000130814
0.000130733
0.000130655
0.000130579
0.000130506
0.000130434
0.000130364
0.000130296
0.000130229
0.000130163
0.0001301
0.000130038
0.000129978
0.000129921
0.000129865
0.000129813
0.000129763
0.000129716
0.000129672
0.000129632
0.000129594
0.000129559
0.000129527
0.000129497
0.00012947
0.000129445
0.000129423
0.000129402
0.000129383
0.000129366
0.00012935
0.000129335
0.000129321
0.000129307
0.000129294
0.00012928
0.000134149
0.000132328
0.000132145
0.000132069
0.00013198
0.00013188
0.000131773
0.000131666
0.000131559
0.000131456
0.000131357
0.000131262
0.000131172
0.000131086
0.000131004
0.000130926
0.00013085
0.000130777
0.000130706
0.000130636
0.000130569
0.000130502
0.000130438
0.000130374
0.000130313
0.000130252
0.000130194
0.000130139
0.000130085
0.000130034
0.000129986
0.000129941
0.000129898
0.000129859
0.000129822
0.000129788
0.000129757
0.000129729
0.000129703
0.000129679
0.000129657
0.000129638
0.000129619
0.000129603
0.000129587
0.000129573
0.000129559
0.000129544
0.000129493
0.000129284
0.000134194
0.000132451
0.000132253
0.000132164
0.000132065
0.000131957
0.000131845
0.000131732
0.000131622
0.000131516
0.000131415
0.000131319
0.000131229
0.000131143
0.000131061
0.000130983
0.000130908
0.000130835
0.000130765
0.000130696
0.000130629
0.000130563
0.000130499
0.000130436
0.000130375
0.000130315
0.000130258
0.000130202
0.000130149
0.000130098
0.00013005
0.000130005
0.000129963
0.000129924
0.000129888
0.000129854
0.000129824
0.000129795
0.00012977
0.000129746
0.000129725
0.000129706
0.000129688
0.000129671
0.000129656
0.000129642
0.000129629
0.000129612
0.000129534
0.000129287
0.000134289
0.000132559
0.00013234
0.00013223
0.000132113
0.000131989
0.000131864
0.000131742
0.000131626
0.000131516
0.000131413
0.000131316
0.000131225
0.000131139
0.000131058
0.00013098
0.000130906
0.000130834
0.000130764
0.000130696
0.000130629
0.000130564
0.0001305
0.000130437
0.000130376
0.000130317
0.000130259
0.000130204
0.000130151
0.0001301
0.000130052
0.000130007
0.000129965
0.000129926
0.00012989
0.000129857
0.000129826
0.000129798
0.000129773
0.00012975
0.000129729
0.000129709
0.000129692
0.000129675
0.000129661
0.000129647
0.000129634
0.000129617
0.000129537
0.00012929
0.00013444
0.000132725
0.000132466
0.000132319
0.000132171
0.000132023
0.00013188
0.000131746
0.000131622
0.000131508
0.000131402
0.000131304
0.000131212
0.000131127
0.000131046
0.00013097
0.000130896
0.000130825
0.000130756
0.000130689
0.000130623
0.000130559
0.000130495
0.000130433
0.000130372
0.000130313
0.000130256
0.0001302
0.000130147
0.000130097
0.000130049
0.000130004
0.000129962
0.000129923
0.000129887
0.000129854
0.000129824
0.000129796
0.000129771
0.000129748
0.000129727
0.000129708
0.000129691
0.000129675
0.00012966
0.000129647
0.000129634
0.000129618
0.000129539
0.000129292
0.000134704
0.000132996
0.000132654
0.000132441
0.000132244
0.000132061
0.000131896
0.000131747
0.000131613
0.000131494
0.000131385
0.000131286
0.000131195
0.000131111
0.000131031
0.000130956
0.000130884
0.000130814
0.000130746
0.00013068
0.000130615
0.000130552
0.000130489
0.000130427
0.000130367
0.000130308
0.000130251
0.000130195
0.000130143
0.000130092
0.000130045
0.00013
0.000129958
0.00012992
0.000129884
0.000129851
0.000129821
0.000129794
0.000129769
0.000129746
0.000129725
0.000129707
0.00012969
0.000129674
0.00012966
0.000129647
0.000129634
0.000129619
0.00012954
0.000129294
0.000135241
0.000133497
0.000132943
0.000132604
0.00013233
0.0001321
0.000131905
0.00013174
0.000131597
0.000131472
0.000131362
0.000131263
0.000131173
0.00013109
0.000131012
0.000130938
0.000130868
0.0001308
0.000130734
0.000130669
0.000130606
0.000130543
0.000130481
0.00013042
0.00013036
0.000130301
0.000130244
0.000130189
0.000130137
0.000130087
0.000130039
0.000129995
0.000129953
0.000129915
0.000129879
0.000129847
0.000129817
0.00012979
0.000129766
0.000129743
0.000129723
0.000129705
0.000129688
0.000129673
0.000129659
0.000129646
0.000129634
0.000129619
0.000129541
0.000129296
0.000136627
0.000134675
0.000133448
0.000132827
0.000132426
0.000132131
0.000131903
0.00013172
0.000131569
0.000131441
0.000131331
0.000131233
0.000131144
0.000131064
0.000130988
0.000130917
0.000130849
0.000130783
0.000130719
0.000130656
0.000130593
0.000130532
0.000130471
0.00013041
0.000130351
0.000130293
0.000130237
0.000130182
0.00013013
0.00013008
0.000130033
0.000129988
0.000129947
0.000129909
0.000129874
0.000129842
0.000129813
0.000129786
0.000129762
0.00012974
0.00012972
0.000129702
0.000129686
0.000129671
0.000129658
0.000129646
0.000129634
0.00012962
0.000129543
0.000129298
0.000140332
0.000138628
0.000134625
0.000133152
0.000132517
0.000132138
0.000131878
0.000131682
0.000131527
0.000131399
0.00013129
0.000131195
0.00013111
0.000131032
0.00013096
0.000130892
0.000130827
0.000130763
0.000130701
0.00013064
0.000130579
0.000130519
0.000130459
0.0001304
0.000130341
0.000130284
0.000130228
0.000130173
0.000130121
0.000130072
0.000130025
0.000129981
0.000129941
0.000129903
0.000129868
0.000129837
0.000129808
0.000129782
0.000129758
0.000129737
0.000129717
0.0001297
0.000129684
0.00012967
0.000129657
0.000129645
0.000129634
0.00012962
0.000129543
0.000129299
0.000140226
0.000142853
0.000137637
0.000133748
0.000132591
0.000132107
0.000131819
0.000131619
0.000131467
0.000131344
0.00013124
0.00013115
0.000131069
0.000130996
0.000130928
0.000130863
0.000130801
0.00013074
0.00013068
0.000130621
0.000130563
0.000130504
0.000130445
0.000130387
0.000130329
0.000130273
0.000130217
0.000130163
0.000130112
0.000130063
0.000130017
0.000129973
0.000129933
0.000129896
0.000129862
0.000129831
0.000129802
0.000129777
0.000129754
0.000129733
0.000129714
0.000129697
0.000129682
0.000129668
0.000129655
0.000129644
0.000129633
0.00012962
0.000129544
0.0001293
0.000136473
0.000137654
0.000135388
0.000133243
0.000132391
0.000131968
0.00013171
0.000131529
0.000131389
0.000131276
0.00013118
0.000131097
0.000131022
0.000130954
0.000130891
0.00013083
0.000130771
0.000130714
0.000130657
0.0001306
0.000130544
0.000130487
0.00013043
0.000130373
0.000130316
0.00013026
0.000130205
0.000130152
0.000130101
0.000130053
0.000130007
0.000129964
0.000129925
0.000129888
0.000129855
0.000129824
0.000129797
0.000129772
0.000129749
0.000129729
0.000129711
0.000129694
0.000129679
0.000129666
0.000129654
0.000129643
0.000129633
0.000129619
0.000129544
0.000129301
0.000132626
0.000133637
0.000133253
0.000132507
0.000132055
0.000131768
0.000131568
0.000131417
0.000131297
0.000131197
0.000131112
0.000131037
0.00013097
0.000130908
0.00013085
0.000130793
0.000130739
0.000130685
0.000130631
0.000130577
0.000130522
0.000130468
0.000130412
0.000130356
0.000130301
0.000130246
0.000130192
0.00013014
0.00013009
0.000130042
0.000129997
0.000129955
0.000129916
0.00012988
0.000129848
0.000129818
0.000129791
0.000129766
0.000129744
0.000129725
0.000129707
0.000129691
0.000129676
0.000129663
0.000129652
0.000129641
0.000129632
0.000129619
0.000129544
0.000129301
0.000131844
0.000132329
0.000132292
0.000132
0.000131751
0.000131561
0.000131413
0.000131294
0.000131195
0.000131111
0.000131038
0.000130973
0.000130913
0.000130858
0.000130805
0.000130754
0.000130704
0.000130653
0.000130603
0.000130551
0.000130499
0.000130446
0.000130393
0.000130339
0.000130285
0.000130231
0.000130179
0.000130127
0.000130078
0.000130031
0.000129987
0.000129945
0.000129907
0.000129872
0.00012984
0.000129811
0.000129784
0.000129761
0.000129739
0.00012972
0.000129703
0.000129688
0.000129674
0.000129661
0.00012965
0.00012964
0.00012963
0.000129618
0.000129543
0.0001293
0.000131459
0.000131743
0.000131775
0.000131639
0.000131492
0.000131366
0.000131259
0.000131168
0.00013109
0.000131021
0.00013096
0.000130905
0.000130854
0.000130805
0.000130758
0.000130712
0.000130666
0.00013062
0.000130572
0.000130524
0.000130475
0.000130424
0.000130372
0.00013032
0.000130268
0.000130215
0.000130164
0.000130114
0.000130066
0.00013002
0.000129976
0.000129936
0.000129898
0.000129864
0.000129833
0.000129804
0.000129778
0.000129755
0.000129735
0.000129716
0.000129699
0.000129684
0.000129671
0.000129659
0.000129648
0.000129638
0.000129629
0.000129617
0.000129542
0.000129299
0.000131151
0.000131381
0.000131434
0.000131362
0.000131272
0.000131188
0.000131112
0.000131045
0.000130984
0.00013093
0.000130881
0.000130835
0.000130792
0.00013075
0.000130709
0.000130668
0.000130627
0.000130584
0.00013054
0.000130495
0.000130448
0.0001304
0.000130351
0.000130301
0.00013025
0.000130199
0.000130149
0.0001301
0.000130053
0.000130008
0.000129966
0.000129926
0.00012989
0.000129856
0.000129825
0.000129798
0.000129773
0.00012975
0.00012973
0.000129712
0.000129696
0.000129681
0.000129668
0.000129656
0.000129646
0.000129636
0.000129627
0.000129616
0.000129541
0.000129298
0.0001309
0.000131116
0.000131178
0.000131139
0.000131082
0.000131027
0.000130975
0.000130926
0.000130881
0.00013084
0.000130801
0.000130765
0.000130729
0.000130694
0.000130659
0.000130623
0.000130586
0.000130547
0.000130507
0.000130465
0.000130421
0.000130376
0.000130328
0.00013028
0.000130231
0.000130182
0.000130134
0.000130086
0.000130041
0.000129997
0.000129956
0.000129917
0.000129881
0.000129849
0.000129819
0.000129792
0.000129767
0.000129745
0.000129726
0.000129708
0.000129692
0.000129678
0.000129665
0.000129654
0.000129644
0.000129634
0.000129626
0.000129614
0.00012954
0.000129297
0.000130693
0.000130905
0.000130973
0.000130952
0.000130918
0.000130882
0.000130847
0.000130814
0.000130782
0.000130752
0.000130723
0.000130695
0.000130667
0.000130638
0.000130608
0.000130577
0.000130545
0.00013051
0.000130474
0.000130435
0.000130394
0.000130351
0.000130306
0.00013026
0.000130213
0.000130166
0.000130119
0.000130073
0.000130029
0.000129986
0.000129946
0.000129909
0.000129874
0.000129842
0.000129813
0.000129786
0.000129763
0.000129741
0.000129722
0.000129705
0.000129689
0.000129676
0.000129663
0.000129652
0.000129642
0.000129633
0.000129624
0.000129613
0.000129538
0.000129295
0.000130517
0.000130729
0.000130802
0.000130792
0.000130773
0.000130751
0.00013073
0.000130709
0.000130688
0.000130668
0.000130648
0.000130627
0.000130605
0.000130583
0.000130558
0.000130532
0.000130504
0.000130473
0.00013044
0.000130404
0.000130366
0.000130326
0.000130283
0.00013024
0.000130195
0.00013015
0.000130105
0.00013006
0.000130017
0.000129976
0.000129937
0.000129901
0.000129867
0.000129836
0.000129808
0.000129782
0.000129759
0.000129738
0.000129719
0.000129702
0.000129687
0.000129673
0.000129661
0.00012965
0.00012964
0.000129631
0.000129623
0.000129611
0.000129537
0.000129294
0.000130364
0.000130579
0.000130654
0.000130653
0.000130644
0.000130633
0.000130622
0.000130611
0.0001306
0.000130588
0.000130575
0.000130561
0.000130546
0.000130529
0.00013051
0.000130488
0.000130464
0.000130437
0.000130407
0.000130374
0.000130339
0.000130301
0.000130262
0.00013022
0.000130178
0.000130134
0.000130091
0.000130049
0.000130007
0.000129968
0.00012993
0.000129894
0.000129861
0.000129831
0.000129803
0.000129778
0.000129755
0.000129735
0.000129716
0.0001297
0.000129685
0.000129671
0.000129659
0.000129649
0.000129639
0.00012963
0.000129622
0.00012961
0.000129535
0.000129292
0.000130229
0.000130447
0.000130525
0.00013053
0.000130528
0.000130526
0.000130523
0.00013052
0.000130517
0.000130512
0.000130506
0.000130499
0.000130489
0.000130477
0.000130463
0.000130445
0.000130425
0.000130402
0.000130375
0.000130345
0.000130313
0.000130278
0.000130241
0.000130202
0.000130161
0.00013012
0.000130079
0.000130038
0.000129998
0.00012996
0.000129923
0.000129889
0.000129857
0.000129827
0.0001298
0.000129775
0.000129753
0.000129732
0.000129714
0.000129698
0.000129683
0.00012967
0.000129658
0.000129647
0.000129638
0.000129629
0.000129621
0.000129609
0.000129534
0.000129291
0.000130108
0.000130329
0.000130409
0.000130419
0.000130423
0.000130428
0.000130433
0.000130437
0.00013044
0.000130442
0.000130442
0.00013044
0.000130436
0.000130428
0.000130418
0.000130405
0.000130388
0.000130368
0.000130345
0.000130318
0.000130288
0.000130256
0.000130221
0.000130184
0.000130146
0.000130107
0.000130067
0.000130028
0.00012999
0.000129953
0.000129917
0.000129884
0.000129853
0.000129824
0.000129797
0.000129773
0.000129751
0.000129731
0.000129713
0.000129697
0.000129682
0.000129669
0.000129657
0.000129647
0.000129637
0.000129628
0.00012962
0.000129608
0.000129533
0.000129289
0.000129998
0.000130222
0.000130304
0.000130318
0.000130328
0.000130339
0.000130349
0.00013036
0.000130369
0.000130377
0.000130382
0.000130386
0.000130386
0.000130383
0.000130377
0.000130367
0.000130354
0.000130337
0.000130316
0.000130293
0.000130265
0.000130235
0.000130203
0.000130168
0.000130132
0.000130095
0.000130057
0.000130019
0.000129983
0.000129947
0.000129913
0.00012988
0.00012985
0.000129821
0.000129795
0.000129771
0.00012975
0.00012973
0.000129712
0.000129696
0.000129682
0.000129668
0.000129657
0.000129646
0.000129636
0.000129627
0.000129619
0.000129607
0.000129531
0.000129287
0.000129896
0.000130124
0.000130208
0.000130226
0.000130241
0.000130257
0.000130273
0.000130289
0.000130304
0.000130317
0.000130328
0.000130336
0.00013034
0.000130341
0.000130339
0.000130333
0.000130322
0.000130308
0.000130291
0.000130269
0.000130244
0.000130217
0.000130186
0.000130154
0.000130119
0.000130084
0.000130048
0.000130012
0.000129976
0.000129942
0.000129909
0.000129877
0.000129847
0.00012982
0.000129794
0.00012977
0.000129749
0.000129729
0.000129712
0.000129696
0.000129681
0.000129668
0.000129656
0.000129646
0.000129636
0.000129627
0.000129618
0.000129606
0.00012953
0.000129286
0.000129802
0.000130033
0.00013012
0.000130142
0.000130162
0.000130183
0.000130204
0.000130226
0.000130246
0.000130264
0.000130279
0.000130291
0.000130299
0.000130304
0.000130305
0.000130302
0.000130294
0.000130283
0.000130267
0.000130248
0.000130226
0.0001302
0.000130172
0.000130141
0.000130108
0.000130075
0.00013004
0.000130005
0.000129971
0.000129938
0.000129905
0.000129875
0.000129846
0.000129818
0.000129793
0.00012977
0.000129749
0.000129729
0.000129712
0.000129696
0.000129681
0.000129668
0.000129656
0.000129646
0.000129636
0.000129627
0.000129618
0.000129606
0.00012953
0.000129285
0.000129712
0.000129947
0.000130038
0.000130064
0.000130089
0.000130116
0.000130143
0.000130169
0.000130194
0.000130216
0.000130236
0.000130251
0.000130263
0.000130271
0.000130275
0.000130274
0.00013027
0.00013026
0.000130247
0.00013023
0.00013021
0.000130186
0.000130159
0.00013013
0.000130099
0.000130067
0.000130033
0.00013
0.000129967
0.000129934
0.000129903
0.000129873
0.000129844
0.000129818
0.000129793
0.00012977
0.000129749
0.000129729
0.000129712
0.000129696
0.000129681
0.000129668
0.000129656
0.000129646
0.000129636
0.000129627
0.000129618
0.000129605
0.000129529
0.000129284
0.000129628
0.000129867
0.000129962
0.000129994
0.000130024
0.000130056
0.000130088
0.00013012
0.000130149
0.000130175
0.000130198
0.000130218
0.000130233
0.000130243
0.00013025
0.000130251
0.000130249
0.000130241
0.00013023
0.000130215
0.000130196
0.000130174
0.000130148
0.000130121
0.000130091
0.00013006
0.000130028
0.000129996
0.000129963
0.000129932
0.000129901
0.000129871
0.000129843
0.000129817
0.000129792
0.00012977
0.000129749
0.000129729
0.000129712
0.000129696
0.000129682
0.000129669
0.000129657
0.000129646
0.000129636
0.000129627
0.000129618
0.000129605
0.000129529
0.000129283
0.000129546
0.000129791
0.000129892
0.00012993
0.000129967
0.000130005
0.000130042
0.000130078
0.000130112
0.000130142
0.000130168
0.00013019
0.000130207
0.00013022
0.000130229
0.000130232
0.000130231
0.000130226
0.000130216
0.000130202
0.000130185
0.000130164
0.00013014
0.000130113
0.000130084
0.000130054
0.000130023
0.000129992
0.00012996
0.000129929
0.000129899
0.00012987
0.000129843
0.000129816
0.000129792
0.00012977
0.000129749
0.00012973
0.000129712
0.000129696
0.000129682
0.000129669
0.000129657
0.000129646
0.000129636
0.000129626
0.000129618
0.000129605
0.000129528
0.000129282
0.000129468
0.000129718
0.000129825
0.000129871
0.000129915
0.000129959
0.000130001
0.000130041
0.000130078
0.000130111
0.00013014
0.000130165
0.000130184
0.000130199
0.000130209
0.000130214
0.000130214
0.00013021
0.000130201
0.000130189
0.000130172
0.000130152
0.000130129
0.000130103
0.000130075
0.000130046
0.000130016
0.000129985
0.000129954
0.000129924
0.000129894
0.000129865
0.000129838
0.000129812
0.000129788
0.000129765
0.000129744
0.000129725
0.000129708
0.000129692
0.000129677
0.000129664
0.000129652
0.000129641
0.000129631
0.000129622
0.000129613
0.0001296
0.000129526
0.000129282
0.000129392
0.000129617
0.000129707
0.00012976
0.000129812
0.000129861
0.000129909
0.000129953
0.000129993
0.000130029
0.00013006
0.000130086
0.000130108
0.000130124
0.000130135
0.000130142
0.000130143
0.00013014
0.000130132
0.00013012
0.000130104
0.000130084
0.000130061
0.000130036
0.000130008
0.000129979
0.000129949
0.000129919
0.000129888
0.000129857
0.000129827
0.000129799
0.000129771
0.000129745
0.000129721
0.000129698
0.000129677
0.000129658
0.00012964
0.000129624
0.000129609
0.000129596
0.000129584
0.000129573
0.000129563
0.000129553
0.000129544
0.000129534
0.000129486
0.000129281
0.000129323
0.000129377
0.000129438
0.000129499
0.000129557
0.000129612
0.000129664
0.000129712
0.000129755
0.000129794
0.000129827
0.000129856
0.000129879
0.000129897
0.00012991
0.000129917
0.000129919
0.000129916
0.000129909
0.000129896
0.00012988
0.00012986
0.000129837
0.000129811
0.000129783
0.000129754
0.000129723
0.000129691
0.00012966
0.000129628
0.000129598
0.000129568
0.00012954
0.000129513
0.000129488
0.000129465
0.000129443
0.000129423
0.000129405
0.000129388
0.000129373
0.000129359
0.000129346
0.000129335
0.000129324
0.000129314
0.000129305
0.000129296
0.000129287
0.000129278
0.000134076
0.000132336
0.000132143
0.000132061
0.000131973
0.000131876
0.000131772
0.000131666
0.000131562
0.000131459
0.000131361
0.000131266
0.000131176
0.000131091
0.000131008
0.00013093
0.000130854
0.00013078
0.000130709
0.000130639
0.000130572
0.000130505
0.00013044
0.000130376
0.000130315
0.000130254
0.000130196
0.00013014
0.000130086
0.000130035
0.000129987
0.000129942
0.000129899
0.000129859
0.000129823
0.000129789
0.000129758
0.000129729
0.000129703
0.00012968
0.000129658
0.000129638
0.00012962
0.000129603
0.000129588
0.000129574
0.000129561
0.000129546
0.000129496
0.00012929
0.000996939
0.000832181
0.000812136
0.00080595
0.000802369
0.000800328
0.000799554
0.000799714
0.00080047
0.000801675
0.000803063
0.000804519
0.000805946
0.000807286
0.000808505
0.000809591
0.000810544
0.000811376
0.000812109
0.000812768
0.000813379
0.000813972
0.000814574
0.000815208
0.000815891
0.00081664
0.000817461
0.000818356
0.000819322
0.000820348
0.000821425
0.000822535
0.000823662
0.000824788
0.000825898
0.000826978
0.000828013
0.000828993
0.00082991
0.000830757
0.00083153
0.000832226
0.000832844
0.000833382
0.00083384
0.000834206
0.000834201
0.000827012
0.000694998
0.000129494
0.00124838
0.00110231
0.00108705
0.00108456
0.00108345
0.00108246
0.00108153
0.00108057
0.00107963
0.00107872
0.00107783
0.00107696
0.0010761
0.00107525
0.00107441
0.00107357
0.00107275
0.00107196
0.00107122
0.00107055
0.00106999
0.00106954
0.00106924
0.00106911
0.00106915
0.00106938
0.0010698
0.0010704
0.00107117
0.00107208
0.00107312
0.00107426
0.00107546
0.00107671
0.00107797
0.00107922
0.00108044
0.00108162
0.00108273
0.00108376
0.00108472
0.00108558
0.00108635
0.00108703
0.0010876
0.00108804
0.00108756
0.00107032
0.000828839
0.000129535
0.0012686
0.0011255
0.00111081
0.00110865
0.00110764
0.00110656
0.00110533
0.001104
0.00110265
0.0011013
0.00109997
0.00109868
0.00109743
0.00109621
0.00109501
0.00109385
0.00109274
0.00109167
0.00109069
0.0010898
0.00108903
0.00108841
0.00108796
0.0010877
0.00108765
0.0010878
0.00108818
0.00108876
0.00108952
0.00109045
0.00109152
0.00109269
0.00109395
0.00109525
0.00109656
0.00109787
0.00109914
0.00110037
0.00110152
0.0011026
0.00110359
0.00110449
0.00110529
0.00110598
0.00110658
0.00110703
0.00110648
0.00108802
0.000836353
0.000129539
0.00127736
0.001133
0.00111665
0.00111309
0.00111111
0.00110926
0.00110745
0.0011057
0.00110402
0.00110245
0.00110096
0.00109954
0.00109817
0.00109685
0.00109556
0.00109431
0.0010931
0.00109194
0.00109087
0.00108989
0.00108905
0.00108836
0.00108785
0.00108756
0.00108749
0.00108764
0.00108804
0.00108865
0.00108946
0.00109046
0.0010916
0.00109285
0.00109419
0.00109557
0.00109696
0.00109834
0.00109969
0.00110097
0.00110218
0.0011033
0.00110433
0.00110526
0.00110609
0.00110681
0.00110743
0.00110789
0.00110734
0.00108881
0.000836611
0.000129541
0.00129614
0.00114888
0.00112669
0.0011189
0.00111494
0.00111164
0.00110887
0.00110649
0.00110441
0.00110255
0.00110087
0.00109931
0.00109783
0.00109641
0.00109502
0.00109367
0.00109237
0.00109112
0.00108994
0.00108887
0.00108794
0.00108717
0.00108661
0.00108627
0.00108618
0.00108634
0.00108676
0.00108742
0.00108829
0.00108937
0.0010906
0.00109195
0.00109338
0.00109486
0.00109635
0.00109782
0.00109925
0.0011006
0.00110188
0.00110306
0.00110414
0.00110511
0.00110597
0.00110672
0.00110735
0.00110783
0.0011073
0.00108878
0.00083657
0.000129543
0.00134938
0.00119848
0.00114669
0.00113037
0.00112118
0.00111511
0.00111075
0.00110745
0.00110482
0.00110263
0.00110073
0.00109901
0.00109742
0.00109588
0.00109439
0.00109293
0.00109151
0.00109015
0.00108886
0.00108768
0.00108665
0.0010858
0.00108517
0.00108478
0.00108467
0.00108482
0.00108527
0.00108598
0.00108693
0.00108809
0.00108943
0.00109089
0.00109244
0.00109403
0.00109562
0.00109719
0.00109871
0.00110015
0.0011015
0.00110274
0.00110388
0.00110489
0.00110579
0.00110657
0.00110723
0.00110773
0.00110721
0.00108871
0.000836518
0.000129544
0.00151647
0.00135025
0.00120089
0.00115191
0.00113087
0.00111979
0.00111302
0.0011085
0.00110523
0.00110269
0.00110057
0.00109869
0.00109698
0.00109533
0.00109372
0.00109215
0.00109061
0.00108912
0.00108771
0.00108642
0.00108527
0.00108432
0.00108361
0.00108317
0.00108303
0.00108319
0.00108366
0.00108443
0.00108546
0.00108672
0.00108817
0.00108975
0.00109142
0.00109313
0.00109485
0.00109652
0.00109814
0.00109967
0.0011011
0.00110241
0.0011036
0.00110467
0.0011056
0.00110642
0.0011071
0.00110762
0.00110712
0.00108863
0.000836462
0.000129546
0.00189287
0.00174294
0.00135419
0.0011963
0.00114547
0.00112538
0.0011153
0.0011094
0.00110551
0.00110265
0.00110034
0.00109835
0.00109653
0.00109477
0.00109305
0.00109136
0.0010897
0.00108809
0.00108655
0.00108512
0.00108386
0.00108281
0.00108202
0.00108152
0.00108135
0.00108151
0.00108201
0.00108283
0.00108395
0.00108531
0.00108687
0.00108858
0.00109038
0.00109222
0.00109405
0.00109584
0.00109756
0.00109918
0.00110069
0.00110207
0.00110332
0.00110443
0.00110541
0.00110626
0.00110697
0.00110751
0.00110703
0.00108854
0.000836409
0.000129547
0.00155939
0.00196622
0.00157611
0.00126657
0.00116448
0.00113063
0.00111683
0.00110979
0.00110548
0.00110245
0.00110005
0.00109797
0.00109607
0.00109422
0.0010924
0.00109061
0.00108882
0.00108708
0.00108541
0.00108386
0.00108249
0.00108133
0.00108045
0.0010799
0.00107969
0.00107985
0.00108038
0.00108127
0.00108247
0.00108393
0.00108561
0.00108744
0.00108936
0.00109133
0.00109328
0.00109518
0.001097
0.00109871
0.00110029
0.00110174
0.00110305
0.00110421
0.00110523
0.00110611
0.00110685
0.00110741
0.00110694
0.00108847
0.000836353
0.000129547
0.000157077
0.000990951
0.00133864
0.0012273
0.00115676
0.00112825
0.00111576
0.00110918
0.00110507
0.0011021
0.0010997
0.00109759
0.00109564
0.00109372
0.00109182
0.00108992
0.00108802
0.00108616
0.00108437
0.0010827
0.00108121
0.00107996
0.001079
0.00107838
0.00107815
0.0010783
0.00107886
0.0010798
0.00108108
0.00108264
0.00108443
0.00108638
0.00108842
0.0010905
0.00109256
0.00109457
0.00109648
0.00109827
0.00109993
0.00110144
0.0011028
0.00110401
0.00110506
0.00110597
0.00110673
0.00110731
0.00110686
0.0010884
0.000836304
0.000129547
0.000135357
0.000740191
0.00116535
0.00116853
0.00113923
0.00112234
0.00111337
0.00110802
0.0011044
0.00110164
0.00109933
0.00109725
0.00109527
0.00109329
0.00109132
0.00108933
0.00108734
0.00108537
0.00108347
0.0010817
0.0010801
0.00107876
0.00107772
0.00107705
0.00107679
0.00107695
0.00107753
0.00107852
0.00107986
0.00108151
0.0010834
0.00108545
0.0010876
0.00108978
0.00109194
0.00109404
0.00109603
0.0010979
0.00109962
0.00110118
0.00110259
0.00110383
0.00110492
0.00110585
0.00110663
0.00110723
0.00110679
0.00108834
0.000836261
0.000129547
0.000132363
0.000743102
0.00111256
0.00114012
0.0011269
0.00111715
0.00111097
0.0011068
0.00110371
0.00110121
0.00109901
0.00109697
0.00109498
0.00109298
0.00109095
0.00108889
0.00108682
0.00108476
0.00108277
0.0010809
0.00107923
0.0010778
0.00107671
0.00107599
0.0010757
0.00107586
0.00107646
0.00107749
0.00107889
0.00108061
0.00108257
0.00108471
0.00108694
0.00108921
0.00109145
0.00109362
0.00109568
0.0010976
0.00109937
0.00110098
0.00110242
0.0011037
0.00110481
0.00110576
0.00110656
0.00110717
0.00110673
0.00108829
0.000836225
0.000129547
0.000131743
0.000750072
0.00109561
0.00112563
0.00111949
0.00111346
0.00110907
0.00110578
0.00110314
0.00110087
0.00109878
0.0010968
0.0010948
0.00109278
0.00109072
0.00108861
0.00108648
0.00108436
0.00108231
0.00108037
0.00107863
0.00107715
0.001076
0.00107526
0.00107495
0.0010751
0.00107571
0.00107677
0.00107821
0.00107998
0.001082
0.00108419
0.00108649
0.00108881
0.00109111
0.00109333
0.00109543
0.00109739
0.0010992
0.00110084
0.00110231
0.0011036
0.00110473
0.0011057
0.00110651
0.00110713
0.0011067
0.00108826
0.000836199
0.000129546
0.00013139
0.000760939
0.00108916
0.00111797
0.00111493
0.00111092
0.00110767
0.00110501
0.00110272
0.00110064
0.00109867
0.00109673
0.00109476
0.00109273
0.00109065
0.00108852
0.00108636
0.00108421
0.00108211
0.00108014
0.00107835
0.00107684
0.00107567
0.0010749
0.00107458
0.00107473
0.00107534
0.00107641
0.00107787
0.00107966
0.00108171
0.00108394
0.00108626
0.00108862
0.00109094
0.00109318
0.00109531
0.0010973
0.00109912
0.00110077
0.00110225
0.00110356
0.0011047
0.00110567
0.00110649
0.00110711
0.00110668
0.00108824
0.000836184
0.000129545
0.000131124
0.000771219
0.00108628
0.00111356
0.00111203
0.00110919
0.00110668
0.00110447
0.00110245
0.00110053
0.00109867
0.00109678
0.00109484
0.00109283
0.00109076
0.00108862
0.00108645
0.00108429
0.00108219
0.00108021
0.00107842
0.0010769
0.00107572
0.00107495
0.00107462
0.00107477
0.00107538
0.00107644
0.0010779
0.00107969
0.00108174
0.00108396
0.00108628
0.00108864
0.00109096
0.0010932
0.00109533
0.00109731
0.00109913
0.00110078
0.00110226
0.00110357
0.00110471
0.00110568
0.00110649
0.00110711
0.00110669
0.00108824
0.00083618
0.000129544
0.000130911
0.00077974
0.0010849
0.00111089
0.00111016
0.00110803
0.00110601
0.00110413
0.00110232
0.00110055
0.00109877
0.00109694
0.00109504
0.00109307
0.00109102
0.00108891
0.00108677
0.00108463
0.00108255
0.00108059
0.00107882
0.00107732
0.00107615
0.00107539
0.00107506
0.0010752
0.0010758
0.00107685
0.00107829
0.00108005
0.00108206
0.00108425
0.00108654
0.00108886
0.00109115
0.00109337
0.00109547
0.00109743
0.00109924
0.00110087
0.00110233
0.00110363
0.00110475
0.00110572
0.00110653
0.00110714
0.00110671
0.00108827
0.000836183
0.000129542
0.000130733
0.000786591
0.00108427
0.00110923
0.00110896
0.00110728
0.0011056
0.00110395
0.00110231
0.00110067
0.00109897
0.0010972
0.00109536
0.00109344
0.00109144
0.00108937
0.00108728
0.00108519
0.00108316
0.00108125
0.00107953
0.00107808
0.00107695
0.0010762
0.00107589
0.00107603
0.00107661
0.00107762
0.00107901
0.00108072
0.00108268
0.00108481
0.00108703
0.00108929
0.00109153
0.00109369
0.00109574
0.00109766
0.00109943
0.00110103
0.00110246
0.00110374
0.00110484
0.00110579
0.00110659
0.00110719
0.00110676
0.0010883
0.0008362
0.000129541
0.000130581
0.000792097
0.00108405
0.00110821
0.00110821
0.00110682
0.00110538
0.00110391
0.00110242
0.00110086
0.00109925
0.00109755
0.00109578
0.00109392
0.00109198
0.00108999
0.00108796
0.00108595
0.001084
0.00108217
0.00108052
0.00107912
0.00107805
0.00107734
0.00107704
0.00107718
0.00107773
0.0010787
0.00108003
0.00108167
0.00108354
0.00108558
0.00108772
0.0010899
0.00109205
0.00109414
0.00109612
0.00109798
0.00109969
0.00110125
0.00110265
0.00110389
0.00110497
0.0011059
0.00110667
0.00110726
0.00110682
0.00108836
0.000836221
0.00012954
0.000130447
0.000796549
0.00108407
0.0011076
0.00110777
0.00110658
0.00110531
0.00110398
0.00110259
0.00110113
0.00109959
0.00109797
0.00109627
0.00109448
0.00109263
0.00109072
0.00108878
0.00108687
0.00108501
0.00108328
0.00108172
0.00108041
0.00107939
0.00107873
0.00107845
0.00107858
0.00107911
0.00108003
0.00108129
0.00108283
0.00108461
0.00108654
0.00108857
0.00109064
0.00109269
0.00109469
0.00109659
0.00109837
0.00110002
0.00110152
0.00110287
0.00110407
0.00110512
0.00110602
0.00110678
0.00110735
0.0011069
0.00108842
0.000836255
0.000129538
0.000130327
0.000800182
0.00108423
0.00110726
0.00110753
0.00110649
0.00110535
0.00110412
0.00110283
0.00110145
0.00109999
0.00109844
0.00109682
0.00109511
0.00109335
0.00109153
0.0010897
0.0010879
0.00108615
0.00108453
0.00108308
0.00108185