/*--------------------------------*- C++ -*----------------------------------*\
  =========                 |
  \\      /  F ield         | OpenFOAM: The Open Source CFD Toolbox
   \\    /   O peration     | Website:  https://openfoam.org
    \\  /    A nd           | Version:  12
     \\/     M anipulation  |
\*---------------------------------------------------------------------------*/
/*   Windows 32 and 64 bit porting by blueCAPE: http://www.bluecape.com.pt   *\
|  Based on Windows porting (2.0.x v4) by Symscape: http://www.symscape.com   |
\*---------------------------------------------------------------------------*/
FoamFile
{
    format      ascii;
    class       volScalarField;
    location    "1";
    object      p;
}
// * * * * * * * * * * * * * * * * * * * * * * * * * * * * * * * * * * * * * //

dimensions      [0 2 -2 0 0 0 0];

internalField   nonuniform List<scalar> 
34500
(
0.00012075
6.09957e-05
3.46341e-05
2.99765e-05
2.67572e-05
2.30992e-05
1.86584e-05
1.34264e-05
7.63143e-06
1.57919e-06
-4.43634e-06
-1.01729e-05
-1.54508e-05
-2.01554e-05
-2.42309e-05
-2.76715e-05
-3.05118e-05
-3.28157e-05
-3.46681e-05
-3.61673e-05
-3.74181e-05
-3.85251e-05
-3.95875e-05
-4.0695e-05
-4.19245e-05
-4.3337e-05
-4.49762e-05
-4.68682e-05
-4.90216e-05
-5.14289e-05
-5.40681e-05
-5.69056e-05
-5.98993e-05
-6.30014e-05
-6.61611e-05
-6.93272e-05
-7.24509e-05
-7.54868e-05
-7.83938e-05
-8.1136e-05
-8.36825e-05
-8.60068e-05
-8.80853e-05
-8.98954e-05
-9.14126e-05
-9.2606e-05
-9.34355e-05
-9.3856e-05
-9.38638e-05
-9.36052e-05
-8.27211e-05
-4.22138e-06
2.59485e-05
3.06612e-05
3.04039e-05
2.76735e-05
2.32058e-05
1.75842e-05
1.12812e-05
4.70665e-06
-1.80032e-06
-7.97889e-06
-1.3646e-05
-1.86897e-05
-2.30594e-05
-2.67545e-05
-2.98141e-05
-3.23068e-05
-3.43217e-05
-3.59607e-05
-3.73313e-05
-3.85407e-05
-3.96907e-05
-4.08732e-05
-4.21661e-05
-4.36317e-05
-4.53147e-05
-4.72418e-05
-4.94227e-05
-5.18505e-05
-5.45041e-05
-5.7351e-05
-6.03495e-05
-6.34524e-05
-6.66094e-05
-6.97699e-05
-7.28853e-05
-7.59109e-05
-7.88063e-05
-8.15361e-05
-8.407e-05
-8.63824e-05
-8.84507e-05
-9.02535e-05
-9.17676e-05
-9.2962e-05
-9.37894e-05
-9.41742e-05
-9.4038e-05
-9.35197e-05
2.36742e-05
2.8874e-05
3.56145e-05
3.72482e-05
3.57838e-05
3.2107e-05
2.67331e-05
2.02498e-05
1.31841e-05
5.97561e-06
-1.03355e-06
-7.59539e-06
-1.35464e-05
-1.87947e-05
-2.33078e-05
-2.71004e-05
-3.02236e-05
-3.27553e-05
-3.47915e-05
-3.64392e-05
-3.78101e-05
-3.90144e-05
-4.0156e-05
-4.1328e-05
-4.26101e-05
-4.40655e-05
-4.57397e-05
-4.766e-05
-4.98363e-05
-5.22618e-05
-5.49153e-05
-5.77635e-05
-6.07644e-05
-6.38699e-05
-6.70292e-05
-7.01915e-05
-7.33076e-05
-7.63323e-05
-7.9225e-05
-8.19511e-05
-8.44808e-05
-8.67891e-05
-8.88547e-05
-9.0657e-05
-9.21732e-05
-9.33698e-05
-9.41859e-05
-9.45076e-05
-9.42075e-05
-9.35026e-05
2.36772e-05
3.65948e-05
4.36438e-05
4.39111e-05
4.05291e-05
3.49329e-05
2.79081e-05
2.01218e-05
1.21031e-05
4.25285e-06
-3.14121e-06
-9.89048e-06
-1.58844e-05
-2.1075e-05
-2.54638e-05
-2.90909e-05
-3.2026e-05
-3.436e-05
-3.61983e-05
-3.76545e-05
-3.88445e-05
-3.98818e-05
-4.08723e-05
-4.19105e-05
-4.30766e-05
-4.44343e-05
-4.6029e-05
-4.78875e-05
-5.00187e-05
-5.24145e-05
-5.50519e-05
-5.78955e-05
-6.09011e-05
-6.40182e-05
-6.71937e-05
-7.03744e-05
-7.35098e-05
-7.65535e-05
-7.94641e-05
-8.22063e-05
-8.47505e-05
-8.70718e-05
-8.91494e-05
-9.09634e-05
-9.24901e-05
-9.36926e-05
-9.4499e-05
-9.4774e-05
-9.43764e-05
-9.3575e-05
4.28434e-05
5.26976e-05
5.57222e-05
5.16403e-05
4.43613e-05
3.5557e-05
2.6112e-05
1.66522e-05
7.59336e-06
-7.99377e-07
-8.37047e-06
-1.50426e-05
-2.07921e-05
-2.56359e-05
-2.96219e-05
-3.28226e-05
-3.53289e-05
-3.7246e-05
-3.86881e-05
-3.97746e-05
-4.06249e-05
-4.13545e-05
-4.207e-05
-4.28663e-05
-4.38234e-05
-4.50039e-05
-4.64524e-05
-4.81944e-05
-5.02365e-05
-5.25683e-05
-5.51641e-05
-5.79854e-05
-6.09845e-05
-6.41073e-05
-6.72973e-05
-7.04982e-05
-7.36569e-05
-7.6725e-05
-7.96596e-05
-8.24244e-05
-8.49891e-05
-8.73289e-05
-8.94228e-05
-9.12508e-05
-9.27884e-05
-9.39954e-05
-9.47937e-05
-9.50393e-05
-9.45913e-05
-9.37468e-05
6.56752e-05
7.17479e-05
7.01334e-05
5.93084e-05
4.61173e-05
3.29214e-05
2.05375e-05
9.31884e-06
-6.09734e-07
-9.24381e-06
-1.66414e-05
-2.28809e-05
-2.80497e-05
-3.22402e-05
-3.55502e-05
-3.80829e-05
-3.99483e-05
-4.12623e-05
-4.21452e-05
-4.2719e-05
-4.31044e-05
-4.34165e-05
-4.37614e-05
-4.42325e-05
-4.49082e-05
-4.58493e-05
-4.70984e-05
-4.86787e-05
-5.05943e-05
-5.28317e-05
-5.53617e-05
-5.81419e-05
-6.11203e-05
-6.42387e-05
-6.74362e-05
-7.06529e-05
-7.38325e-05
-7.69237e-05
-7.98819e-05
-8.26692e-05
-8.52544e-05
-8.76124e-05
-8.97218e-05
-9.15622e-05
-9.31083e-05
-9.43181e-05
-9.51108e-05
-9.53406e-05
-9.48707e-05
-9.40118e-05
8.42202e-05
8.96731e-05
8.3473e-05
6.34627e-05
4.24309e-05
2.4295e-05
9.20917e-06
-3.18815e-06
-1.32953e-05
-2.14989e-05
-2.812e-05
-3.34108e-05
-3.75685e-05
-4.07512e-05
-4.30936e-05
-4.47182e-05
-4.57437e-05
-4.62885e-05
-4.64722e-05
-4.6415e-05
-4.62342e-05
-4.60421e-05
-4.59414e-05
-4.60223e-05
-4.63601e-05
-4.70126e-05
-4.80193e-05
-4.94005e-05
-5.11575e-05
-5.32731e-05
-5.57142e-05
-5.84339e-05
-6.13756e-05
-6.44764e-05
-6.76708e-05
-7.08947e-05
-7.40881e-05
-7.71967e-05
-8.01735e-05
-8.29789e-05
-8.55806e-05
-8.79529e-05
-9.00739e-05
-9.19229e-05
-9.34741e-05
-9.46848e-05
-9.54737e-05
-9.56966e-05
-9.52206e-05
-9.43619e-05
5.95677e-05
0.000103633
9.3619e-05
5.8266e-05
2.71376e-05
5.13779e-06
-1.08608e-05
-2.27044e-05
-3.15155e-05
-3.80985e-05
-4.30171e-05
-4.66533e-05
-4.92655e-05
-5.10353e-05
-5.21008e-05
-5.25785e-05
-5.25771e-05
-5.22044e-05
-5.15699e-05
-5.07842e-05
-4.99571e-05
-4.91935e-05
-4.85901e-05
-4.82317e-05
-4.81887e-05
-4.85145e-05
-4.92447e-05
-5.03962e-05
-5.19668e-05
-5.39359e-05
-5.62658e-05
-5.89054e-05
-6.17931e-05
-6.4861e-05
-6.80388e-05
-7.12581e-05
-7.44549e-05
-7.75716e-05
-8.05587e-05
-8.33747e-05
-8.59862e-05
-8.83665e-05
-9.04934e-05
-9.23459e-05
-9.3898e-05
-9.51072e-05
-9.58931e-05
-9.61141e-05
-9.56402e-05
-9.47892e-05
-0.000405191
-2.85679e-05
5.60049e-05
1.78953e-05
-1.35601e-05
-3.15364e-05
-4.33624e-05
-5.11335e-05
-5.6143e-05
-5.93457e-05
-6.13383e-05
-6.24698e-05
-6.29422e-05
-6.28786e-05
-6.23654e-05
-6.14761e-05
-6.02846e-05
-5.88713e-05
-5.7324e-05
-5.57363e-05
-5.42042e-05
-5.28216e-05
-5.1676e-05
-5.08445e-05
-5.03906e-05
-5.03622e-05
-5.07903e-05
-5.16877e-05
-5.30487e-05
-5.4849e-05
-5.70469e-05
-5.95867e-05
-6.2402e-05
-6.542e-05
-6.85655e-05
-7.17658e-05
-7.49527e-05
-7.80656e-05
-8.1052e-05
-8.38688e-05
-8.6481e-05
-8.88613e-05
-9.09871e-05
-9.2837e-05
-9.43854e-05
-9.55902e-05
-9.63724e-05
-9.65935e-05
-9.61258e-05
-9.52861e-05
-0.00204127
-0.000231742
2.74893e-05
-4.9459e-05
-8.13867e-05
-8.89231e-05
-9.03162e-05
-8.91808e-05
-8.71382e-05
-8.48832e-05
-8.26334e-05
-8.04172e-05
-7.82001e-05
-7.59373e-05
-7.35969e-05
-7.11685e-05
-6.86658e-05
-6.61252e-05
-6.36024e-05
-6.11665e-05
-5.88949e-05
-5.68666e-05
-5.51571e-05
-5.38336e-05
-5.29515e-05
-5.2552e-05
-5.26606e-05
-5.32859e-05
-5.44186e-05
-5.60308e-05
-5.80773e-05
-6.0498e-05
-6.3222e-05
-6.61716e-05
-6.92674e-05
-7.24323e-05
-7.55941e-05
-7.86889e-05
-8.16617e-05
-8.44674e-05
-8.70699e-05
-8.94408e-05
-9.15572e-05
-9.33978e-05
-9.49371e-05
-9.61337e-05
-9.69105e-05
-9.71318e-05
-9.66718e-05
-9.58451e-05
-0.00535483
-0.00106796
-0.000521421
-0.000330573
-0.000232785
-0.000182881
-0.00015427
-0.000135847
-0.000122939
-0.000113335
-0.000105824
-9.96743e-05
-9.44135e-05
-8.97298e-05
-8.54201e-05
-8.13604e-05
-7.74866e-05
-7.37803e-05
-7.02575e-05
-6.69584e-05
-6.39381e-05
-6.12586e-05
-5.89813e-05
-5.71619e-05
-5.58466e-05
-5.50692e-05
-5.48491e-05
-5.51907e-05
-5.60812e-05
-5.74897e-05
-5.93674e-05
-6.16507e-05
-6.42645e-05
-6.71269e-05
-7.01545e-05
-7.32661e-05
-7.63859e-05
-7.94467e-05
-8.23913e-05
-8.51727e-05
-8.77536e-05
-9.01048e-05
-9.22029e-05
-9.40267e-05
-9.55509e-05
-9.67351e-05
-9.75037e-05
-9.7724e-05
-9.72716e-05
-9.64583e-05
-0.00247656
-0.00115846
-0.000743826
-0.000500265
-0.000352907
-0.000267958
-0.000215963
-0.000182121
-0.000158826
-0.000141967
-0.000129196
-0.000119099
-0.000110785
-0.000103679
-9.74055e-05
-9.17254e-05
-8.64947e-05
-8.1639e-05
-7.71335e-05
-7.29886e-05
-6.92364e-05
-6.59207e-05
-6.30884e-05
-6.07831e-05
-5.9041e-05
-5.78881e-05
-5.73382e-05
-5.73909e-05
-5.80306e-05
-5.92234e-05
-6.0918e-05
-6.30473e-05
-6.5533e-05
-6.82896e-05
-7.12302e-05
-7.42698e-05
-7.73297e-05
-8.03397e-05
-8.32405e-05
-8.59834e-05
-8.853e-05
-9.08503e-05
-9.29207e-05
-9.47198e-05
-9.62226e-05
-9.73896e-05
-9.81466e-05
-9.83637e-05
-9.7918e-05
-9.71177e-05
-0.00157021
-0.00106335
-0.00076617
-0.000558864
-0.000418626
-0.000325984
-0.000263842
-0.000221029
-0.000190564
-0.000168132
-0.00015103
-0.000137531
-0.000126505
-0.000117203
-0.000109124
-0.000101939
-9.5441e-05
-8.95069e-05
-8.40771e-05
-7.91347e-05
-7.4691e-05
-7.07729e-05
-6.74131e-05
-6.46437e-05
-6.24911e-05
-6.09739e-05
-6.00999e-05
-5.9865e-05
-6.02504e-05
-6.12202e-05
-6.27205e-05
-6.4682e-05
-6.70232e-05
-6.96565e-05
-7.24917e-05
-7.54409e-05
-7.84226e-05
-8.13645e-05
-8.42053e-05
-8.68951e-05
-8.93943e-05
-9.16724e-05
-9.37053e-05
-9.54715e-05
-9.69463e-05
-9.80909e-05
-9.88325e-05
-9.90438e-05
-9.86028e-05
-9.78143e-05
-0.00114547
-0.000917375
-0.000720704
-0.000562624
-0.000444233
-0.00035799
-0.00029548
-0.000249803
-0.000215872
-0.000190117
-0.000170079
-0.000154065
-0.00014091
-0.000129807
-0.000120201
-0.000111716
-0.000104103
-9.72093e-05
-9.09483e-05
-8.52834e-05
-8.02087e-05
-7.57371e-05
-7.18894e-05
-6.86872e-05
-6.61484e-05
-6.42848e-05
-6.3099e-05
-6.25834e-05
-6.27164e-05
-6.34602e-05
-6.4759e-05
-6.65415e-05
-6.87246e-05
-7.12185e-05
-7.3931e-05
-7.67718e-05
-7.96575e-05
-8.25141e-05
-8.52789e-05
-8.79008e-05
-9.03395e-05
-9.25638e-05
-9.45494e-05
-9.62745e-05
-9.77148e-05
-9.88317e-05
-9.95539e-05
-9.97562e-05
-9.93177e-05
-9.85396e-05
-0.000891107
-0.000778432
-0.000653131
-0.000538432
-0.000444415
-0.000370307
-0.000312903
-0.000268611
-0.000234245
-0.000207257
-0.000185709
-0.000168162
-0.00015356
-0.000141142
-0.000130361
-0.000120836
-0.000112305
-0.000104603
-9.76302e-05
-9.13373e-05
-8.57072e-05
-8.07426e-05
-7.64553e-05
-7.28588e-05
-6.99642e-05
-6.77775e-05
-6.62973e-05
-6.55126e-05
-6.53996e-05
-6.59184e-05
-6.7012e-05
-6.86076e-05
-7.06211e-05
-7.29617e-05
-7.55355e-05
-7.8251e-05
-8.10236e-05
-8.37783e-05
-8.64514e-05
-8.89911e-05
-9.13565e-05
-9.35159e-05
-9.54446e-05
-9.71208e-05
-9.85199e-05
-9.9604e-05
-0.000100303
-0.000100493
-0.000100054
-9.92848e-05
-0.000727439
-0.000665173
-0.000584358
-0.000502717
-0.00043045
-0.000369548
-0.000319567
-0.000279053
-0.000246293
-0.000219674
-0.000197826
-0.000179642
-0.000164259
-0.00015102
-0.000139436
-0.000129153
-0.000119924
-0.000111584
-0.000104034
-9.72203e-05
-9.11201e-05
-8.57306e-05
-8.1058e-05
-7.71105e-05
-7.38945e-05
-7.14118e-05
-6.9658e-05
-6.86194e-05
-6.82698e-05
-6.85679e-05
-6.94554e-05
-7.08586e-05
-7.26933e-05
-7.48682e-05
-7.72889e-05
-7.98636e-05
-8.25071e-05
-8.51442e-05
-8.77108e-05
-9.01547e-05
-9.24346e-05
-9.45185e-05
-9.63813e-05
-9.80009e-05
-9.93527e-05
-0.000100399
-0.00010107
-0.000101245
-0.000100804
-0.000100041
-0.000615748
-0.000577153
-0.000523136
-0.000464787
-0.000409926
-0.000361048
-0.000318876
-0.000283155
-0.000253146
-0.000227953
-0.000206697
-0.000188599
-0.000173007
-0.000159397
-0.000147362
-0.000136599
-0.00012689
-0.000118088
-0.000110101
-0.000102878
-9.6398e-05
-9.06557e-05
-8.56555e-05
-8.14032e-05
-7.79026e-05
-7.51533e-05
-7.31487e-05
-7.1873e-05
-7.12983e-05
-7.13816e-05
-7.20637e-05
-7.32708e-05
-7.49191e-05
-7.69174e-05
-7.9172e-05
-8.15916e-05
-8.40914e-05
-8.65964e-05
-8.90428e-05
-9.13784e-05
-9.35616e-05
-9.55602e-05
-9.73487e-05
-9.89048e-05
-0.000100204
-0.000101208
-0.000101848
-0.000102004
-0.000101558
-0.0001008
-0.000535372
-0.000509142
-0.000471458
-0.00042907
-0.000387407
-0.000348576
-0.000313615
-0.000282829
-0.000256052
-0.000232873
-0.000212791
-0.000195302
-0.000179948
-0.000166339
-0.00015416
-0.000143167
-0.000133184
-0.000124086
-0.000115797
-0.000108276
-0.000101506
-9.5484e-05
-9.02151e-05
-8.57053e-05
-8.19582e-05
-7.89726e-05
-7.67408e-05
-7.52456e-05
-7.44575e-05
-7.43323e-05
-7.48106e-05
-7.58188e-05
-7.7274e-05
-7.90863e-05
-8.11632e-05
-8.34147e-05
-8.57575e-05
-8.81175e-05
-9.04314e-05
-9.26473e-05
-9.47238e-05
-9.66283e-05
-9.83352e-05
-9.98218e-05
-0.000101063
-0.000102021
-0.000102626
-0.000102761
-0.000102307
-0.000101551
-0.000475255
-0.000456152
-0.000428744
-0.000397273
-0.00036538
-0.000334578
-0.000305836
-0.000279652
-0.000256155
-0.000235234
-0.000216648
-0.000200103
-0.000185304
-0.000171981
-0.000159906
-0.000148896
-0.000138816
-0.000129572
-0.000121108
-0.000113393
-0.000106419
-0.000100188
-9.47083e-05
-8.99883e-05
-8.60326e-05
-8.28405e-05
-8.04043e-05
-7.87062e-05
-7.77158e-05
-7.73882e-05
-7.76643e-05
-7.84714e-05
-7.97279e-05
-8.1346e-05
-8.32354e-05
-8.53083e-05
-8.74829e-05
-8.96869e-05
-9.1858e-05
-9.39449e-05
-9.59062e-05
-9.77094e-05
-9.93285e-05
-0.00010074
-0.000101919
-0.000102828
-0.000103396
-0.000103507
-0.000103043
-0.000102288
-0.000429056
-0.000414394
-0.000393697
-0.000369779
-0.000345066
-0.000320534
-0.000296951
-0.000274825
-0.000254408
-0.000235754
-0.000218791
-0.000203375
-0.000189333
-0.000176495
-0.000164709
-0.000153848
-0.000143819
-0.000134558
-0.000126028
-0.000118213
-0.000111114
-0.00010474
-9.91046e-05
-9.42191e-05
-9.00907e-05
-8.67205e-05
-8.41014e-05
-8.2216e-05
-8.10336e-05
-8.05096e-05
-8.05856e-05
-8.11903e-05
-8.22443e-05
-8.36622e-05
-8.53567e-05
-8.72425e-05
-8.92406e-05
-9.12803e-05
-9.33008e-05
-9.52514e-05
-9.70913e-05
-9.87878e-05
-0.000100315
-0.000101648
-0.000102762
-0.000103619
-0.000104148
-0.000104233
-0.000103757
-0.000103002
-0.000392867
-0.000381151
-0.00036499
-0.00034639
-0.000326965
-0.000307277
-0.000287879
-0.00026921
-0.000251549
-0.000235033
-0.000219686
-0.000205465
-0.000192287
-0.000180059
-0.000168689
-0.0001581
-0.000148236
-0.000139059
-0.000130554
-0.000122718
-0.000115564
-0.000109106
-0.000103365
-9.83549e-05
-9.40874e-05
-9.05657e-05
-8.77842e-05
-8.57265e-05
-8.43625e-05
-8.36486e-05
-8.35275e-05
-8.39304e-05
-8.47803e-05
-8.59949e-05
-8.749e-05
-8.91839e-05
-9.10001e-05
-9.28704e-05
-9.47355e-05
-9.65456e-05
-9.82602e-05
-9.98468e-05
-0.000101278
-0.000102531
-0.000103579
-0.000104382
-0.000104872
-0.00010493
-0.000104441
-0.000103683
-0.000364143
-0.00035449
-0.000341464
-0.000326695
-0.000311195
-0.000295236
-0.000279186
-0.000263394
-0.000248124
-0.000233537
-0.000219714
-0.000206672
-0.000194392
-0.000182835
-0.000171957
-0.000161722
-0.000152103
-0.000143088
-0.000134679
-0.000126887
-0.000119734
-0.000113243
-0.000107439
-0.000102341
-9.79654e-05
-9.43171e-05
-9.13928e-05
-8.91778e-05
-8.76433e-05
-8.67472e-05
-8.64343e-05
-8.66384e-05
-8.72858e-05
-8.82974e-05
-8.95928e-05
-9.10938e-05
-9.27272e-05
-9.44269e-05
-9.61354e-05
-9.78037e-05
-9.9392e-05
-0.000100868
-0.000102204
-0.000103376
-0.000104357
-0.000105107
-0.000105556
-0.000105588
-0.000105085
-0.000104324
-0.000341128
-0.000332976
-0.000322209
-0.000310244
-0.000297681
-0.00028459
-0.000271193
-0.000257756
-0.000244507
-0.00023161
-0.000219168
-0.000207235
-0.000195831
-0.000184957
-0.000174605
-0.000164768
-0.000155446
-0.000146645
-0.000138383
-0.000130684
-0.000123578
-0.000117094
-0.000111263
-0.000106111
-0.000101654
-9.79024e-05
-9.48548e-05
-9.24981e-05
-9.08057e-05
-8.97374e-05
-8.92408e-05
-8.92528e-05
-8.97033e-05
-9.05171e-05
-9.16173e-05
-9.29293e-05
-9.43834e-05
-9.59157e-05
-9.74702e-05
-9.89993e-05
-0.000100463
-0.00010183
-0.000103072
-0.000104165
-0.00010508
-0.000105779
-0.00010619
-0.000106196
-0.000105681
-0.000104916
-0.000322571
-0.000315546
-0.000306482
-0.000296606
-0.000286256
-0.000275365
-0.000264052
-0.000252513
-0.000240939
-0.000229481
-0.000218252
-0.000207322
-0.000196736
-0.000186521
-0.000176694
-0.000167271
-0.000158269
-0.000149714
-0.000141632
-0.00013406
-0.000127032
-0.000120588
-0.000114761
-0.00010958
-0.000105067
-0.000101235
-9.80834e-05
-9.56022e-05
-9.37669e-05
-9.25397e-05
-9.18715e-05
-9.17026e-05
-9.19661e-05
-9.2593e-05
-9.35088e-05
-9.46416e-05
-9.59248e-05
-9.72977e-05
-9.87056e-05
-0.000100102
-0.000101447
-0.00010271
-0.000103863
-0.00010488
-0.000105733
-0.000106383
-0.000106759
-0.000106743
-0.000106217
-0.000105451
-0.000307533
-0.000301395
-0.000293666
-0.000285374
-0.000276697
-0.000267482
-0.000257783
-0.000247746
-0.000237529
-0.000227269
-0.000217074
-0.000207022
-0.000197173
-0.000187567
-0.00017824
-0.000169222
-0.000160546
-0.000152247
-0.000144364
-0.000136938
-0.000130013
-0.000123631
-0.000117832
-0.000112647
-0.000108101
-0.000104209
-0.000100975
-9.8389e-05
-9.64292e-05
-9.50605e-05
-9.42376e-05
-9.39054e-05
-9.39994e-05
-9.44573e-05
-9.52051e-05
-9.61744e-05
-9.72989e-05
-9.85258e-05
-9.97996e-05
-0.000101074
-0.000102311
-0.000103478
-0.000104549
-0.000105497
-0.000106294
-0.0001069
-0.000107247
-0.000107214
-0.000106684
-0.000105919
-0.00029527
-0.000289876
-0.000283224
-0.000276146
-0.000268716
-0.000260751
-0.000252273
-0.000243396
-0.000234253
-0.000224964
-0.000215628
-0.000206325
-0.000197118
-0.000188057
-0.000179188
-0.000170552
-0.000162191
-0.000154148
-0.000146468
-0.000139201
-0.000132393
-0.000126093
-0.000120341
-0.000115173
-0.000110617
-0.00010669
-0.000103397
-0.00010073
-9.86695e-05
-9.71831e-05
-9.62286e-05
-9.57578e-05
-9.571e-05
-9.60256e-05
-9.66288e-05
-9.7458e-05
-9.84405e-05
-9.95394e-05
-0.000100696
-0.000101865
-0.000103009
-0.000104094
-0.000105094
-0.000105982
-0.00010673
-0.000107301
-0.000107625
-0.000107587
-0.000107065
-0.000106311
-0.000285142
-0.000280414
-0.000274625
-0.00026844
-0.000261891
-0.00025481
-0.000247219
-0.00023921
-0.000230895
-0.000222375
-0.000213739
-0.00020506
-0.000196402
-0.000187819
-0.000179361
-0.000171076
-0.000163012
-0.000155218
-0.000147744
-0.000140642
-0.000133964
-0.000127762
-0.000122078
-0.000116952
-0.000112412
-0.000108478
-0.000105157
-0.000102442
-0.000100313
-9.87399e-05
-9.7692e-05
-9.71201e-05
-9.69595e-05
-9.7154e-05
-9.76405e-05
-9.83555e-05
-9.92478e-05
-0.000100248
-0.000101313
-0.0001024
-0.000103471
-0.000104495
-0.000105441
-0.000106282
-0.000106993
-0.000107538
-0.000107853
-0.000107827
-0.000107338
-0.000106616
-0.00027661
-0.000272421
-0.000267187
-0.000261532
-0.000255501
-0.000248984
-0.000242004
-0.000234632
-0.000226949
-0.000219037
-0.00021097
-0.000202814
-0.000194628
-0.000186465
-0.000178379
-0.000170419
-0.000162641
-0.000155095
-0.000147828
-0.000140901
-0.000134371
-0.000128288
-0.0001227
-0.000117647
-0.000113161
-0.000109262
-0.00010596
-0.000103244
-0.000101091
-9.94694e-05
-9.83761e-05
-9.77494e-05
-9.75355e-05
-9.76599e-05
-9.80795e-05
-9.8732e-05
-9.95622e-05
-0.000100506
-0.000101517
-0.000102559
-0.000103586
-0.000104579
-0.000105499
-0.000106313
-0.000107002
-0.000107534
-0.000107855
-0.00010787
-0.000107465
-0.000106823
-0.000269511
-0.000265442
-0.000260309
-0.000254761
-0.000248913
-0.000242704
-0.000236127
-0.000229216
-0.000222016
-0.000214586
-0.000206982
-0.000199261
-0.000191475
-0.000183678
-0.00017592
-0.000168256
-0.000160746
-0.000153443
-0.000146371
-0.000139619
-0.000133246
-0.0001273
-0.000121831
-0.000116881
-0.000112486
-0.000108671
-0.000105448
-0.000102808
-0.000100702
-9.90376e-05
-9.79546e-05
-9.73438e-05
-9.71303e-05
-9.72588e-05
-9.76832e-05
-9.83399e-05
-9.91707e-05
-0.00010012
-0.000101143
-0.000102181
-0.000103215
-0.000104238
-0.000105176
-0.000105984
-0.000106669
-0.000107205
-0.000107551
-0.00010764
-0.000107394
-0.000106925
-0.000264214
-0.000259925
-0.000254644
-0.000248958
-0.000243102
-0.000237029
-0.00023069
-0.00022407
-0.00021719
-0.000210085
-0.000202802
-0.000195387
-0.000187888
-0.000180355
-0.000172836
-0.000165378
-0.000158103
-0.000150967
-0.000144036
-0.000137411
-0.000131153
-0.000125301
-0.000119904
-0.000115006
-0.00011064
-0.00010683
-0.000103591
-0.000100943
-9.89167e-05
-9.75497e-05
-9.65873e-05
-9.60539e-05
-9.59269e-05
-9.61469e-05
-9.66424e-05
-9.73598e-05
-9.82439e-05
-9.92404e-05
-0.000100299
-0.000101386
-0.000102456
-0.000103436
-0.000104355
-0.000105219
-0.000105962
-0.000106549
-0.000106947
-0.000107126
-0.000107085
-0.000106925
0.000119697
5.92732e-05
3.24167e-05
2.69055e-05
2.32416e-05
1.94351e-05
1.50156e-05
9.92572e-06
4.35864e-06
-1.41189e-06
-7.11463e-06
-1.25218e-05
-1.74641e-05
-2.18342e-05
-2.55808e-05
-2.8701e-05
-3.12303e-05
-3.32351e-05
-3.48036e-05
-3.60374e-05
-3.70443e-05
-3.79317e-05
-3.88018e-05
-3.97465e-05
-4.08437e-05
-4.21552e-05
-4.37242e-05
-4.55757e-05
-4.77161e-05
-5.01351e-05
-5.28074e-05
-5.5696e-05
-5.87548e-05
-6.1932e-05
-6.51725e-05
-6.84224e-05
-7.163e-05
-7.47475e-05
-7.77324e-05
-8.05473e-05
-8.31609e-05
-8.55466e-05
-8.76816e-05
-8.95451e-05
-9.11152e-05
-9.23646e-05
-9.32543e-05
-9.37216e-05
-9.37061e-05
-9.33606e-05
-9.6383e-05
-5.92279e-06
2.72203e-05
3.17739e-05
3.1811e-05
2.9447e-05
2.524e-05
1.97947e-05
1.36216e-05
7.15458e-06
7.4885e-07
-5.32262e-06
-1.08698e-05
-1.57769e-05
-1.99925e-05
-2.35181e-05
-2.63963e-05
-2.8701e-05
-3.05276e-05
-3.19852e-05
-3.31889e-05
-3.42535e-05
-3.52876e-05
-3.63884e-05
-3.76385e-05
-3.91029e-05
-4.08277e-05
-4.28391e-05
-4.51439e-05
-4.77305e-05
-5.05727e-05
-5.36322e-05
-5.68602e-05
-6.02035e-05
-6.36059e-05
-6.70102e-05
-7.03629e-05
-7.3615e-05
-7.67228e-05
-7.96492e-05
-8.23628e-05
-8.48377e-05
-8.70525e-05
-8.89888e-05
-9.06289e-05
-9.1956e-05
-9.29562e-05
-9.35573e-05
-9.34813e-05
-9.2872e-05
1.86974e-05
2.78497e-05
3.76053e-05
4.0342e-05
3.98756e-05
3.69168e-05
3.19788e-05
2.57235e-05
1.87563e-05
1.15756e-05
4.56641e-06
-1.9944e-06
-7.92532e-06
-1.3125e-05
-1.75576e-05
-2.1239e-05
-2.4225e-05
-2.66007e-05
-2.84717e-05
-2.99559e-05
-3.11761e-05
-3.22535e-05
-3.33023e-05
-3.44244e-05
-3.57061e-05
-3.72147e-05
-3.89979e-05
-4.10822e-05
-4.34741e-05
-4.61616e-05
-4.91157e-05
-5.22933e-05
-5.56437e-05
-5.91098e-05
-6.26319e-05
-6.61519e-05
-6.96144e-05
-7.29686e-05
-7.61701e-05
-7.91811e-05
-8.19706e-05
-8.45134e-05
-8.67894e-05
-8.87826e-05
-9.04791e-05
-9.18695e-05
-9.29493e-05
-9.35918e-05
-9.33955e-05
-9.25942e-05
2.21638e-05
3.55699e-05
4.41581e-05
4.60121e-05
4.39146e-05
3.92021e-05
3.27333e-05
2.52699e-05
1.74285e-05
9.67727e-06
2.35256e-06
-4.32459e-06
-1.02248e-05
-1.52909e-05
-1.95219e-05
-2.29601e-05
-2.56809e-05
-2.77838e-05
-2.9385e-05
-3.06103e-05
-3.15884e-05
-3.24453e-05
-3.32986e-05
-3.4253e-05
-3.53962e-05
-3.67964e-05
-3.85005e-05
-4.05343e-05
-4.29022e-05
-4.55892e-05
-4.85632e-05
-5.17784e-05
-5.51792e-05
-5.87044e-05
-6.22904e-05
-6.5875e-05
-6.94008e-05
-7.28152e-05
-7.60724e-05
-7.9134e-05
-8.19687e-05
-8.4552e-05
-8.68647e-05
-8.88918e-05
-9.06208e-05
-9.20427e-05
-9.31469e-05
-9.37714e-05
-9.34764e-05
-9.25557e-05
3.39872e-05
4.98112e-05
5.48096e-05
5.27003e-05
4.69092e-05
3.90799e-05
3.0227e-05
2.11132e-05
1.22631e-05
4.01604e-06
-3.42458e-06
-9.95219e-06
-1.55284e-05
-2.01642e-05
-2.39075e-05
-2.68344e-05
-2.90431e-05
-3.06484e-05
-3.17767e-05
-3.25604e-05
-3.31331e-05
-3.36241e-05
-3.4153e-05
-3.48256e-05
-3.573e-05
-3.6934e-05
-3.84833e-05
-4.04014e-05
-4.26899e-05
-4.53302e-05
-4.82859e-05
-5.15066e-05
-5.49316e-05
-5.84945e-05
-6.2127e-05
-6.57626e-05
-6.93406e-05
-7.28059e-05
-7.61109e-05
-7.9216e-05
-8.20897e-05
-8.47072e-05
-8.70499e-05
-8.91033e-05
-9.08545e-05
-9.22925e-05
-9.33998e-05
-9.40005e-05
-9.36532e-05
-9.26891e-05
4.37311e-05
6.61414e-05
6.83655e-05
6.01094e-05
4.86568e-05
3.64893e-05
2.46365e-05
1.3681e-05
3.89986e-06
-4.61798e-06
-1.18843e-05
-1.7957e-05
-2.29153e-05
-2.68508e-05
-2.98643e-05
-3.20657e-05
-3.35736e-05
-3.45154e-05
-3.50249e-05
-3.5239e-05
-3.5294e-05
-3.53205e-05
-3.5439e-05
-3.57553e-05
-3.63569e-05
-3.73101e-05
-3.86588e-05
-4.04233e-05
-4.26019e-05
-4.51717e-05
-4.80911e-05
-5.13041e-05
-5.47441e-05
-5.83389e-05
-6.20143e-05
-6.56993e-05
-6.93293e-05
-7.28457e-05
-7.61989e-05
-7.93479e-05
-8.22604e-05
-8.49116e-05
-8.72827e-05
-8.93594e-05
-9.11282e-05
-9.25765e-05
-9.36833e-05
-9.42711e-05
-9.39098e-05
-9.29469e-05
3.58372e-05
8.05112e-05
8.22752e-05
6.48987e-05
4.56792e-05
2.84798e-05
1.37008e-05
1.36325e-06
-8.7323e-06
-1.68903e-05
-2.34056e-05
-2.85256e-05
-3.245e-05
-3.53425e-05
-3.73451e-05
-3.85893e-05
-3.92048e-05
-3.9323e-05
-3.90788e-05
-3.86088e-05
-3.80482e-05
-3.75265e-05
-3.71625e-05
-3.70605e-05
-3.73058e-05
-3.79624e-05
-3.90712e-05
-4.06492e-05
-4.26904e-05
-4.51668e-05
-4.80316e-05
-5.12224e-05
-5.4666e-05
-5.82836e-05
-6.19947e-05
-6.57237e-05
-6.9401e-05
-7.29648e-05
-7.63627e-05
-7.95523e-05
-8.25003e-05
-8.51815e-05
-8.75772e-05
-8.96729e-05
-9.14552e-05
-9.29104e-05
-9.40165e-05
-9.45997e-05
-9.42446e-05
-9.33039e-05
-3.26022e-05
8.76823e-05
9.36314e-05
6.06737e-05
3.15921e-05
1.02565e-05
-5.8602e-06
-1.79454e-05
-2.69034e-05
-3.3509e-05
-3.83387e-05
-4.17919e-05
-4.4142e-05
-4.55826e-05
-4.62626e-05
-4.63098e-05
-4.58453e-05
-4.49913e-05
-4.38739e-05
-4.26223e-05
-4.13656e-05
-4.02282e-05
-3.93248e-05
-3.87558e-05
-3.86026e-05
-3.89259e-05
-3.97625e-05
-4.11256e-05
-4.30044e-05
-4.53657e-05
-4.81569e-05
-5.13089e-05
-5.47417e-05
-5.83695e-05
-6.21054e-05
-6.58686e-05
-6.95846e-05
-7.31878e-05
-7.66232e-05
-7.98466e-05
-8.28236e-05
-8.55289e-05
-8.79435e-05
-9.00531e-05
-9.18442e-05
-9.33033e-05
-9.44085e-05
-9.49919e-05
-9.46533e-05
-9.37451e-05
-0.000477442
-3.42781e-05
5.45318e-05
2.11426e-05
-8.02118e-06
-2.58862e-05
-3.8224e-05
-4.64422e-05
-5.16683e-05
-5.48933e-05
-5.67664e-05
-5.76717e-05
-5.78335e-05
-5.73896e-05
-5.64381e-05
-5.50638e-05
-5.33534e-05
-5.14024e-05
-4.93163e-05
-4.72088e-05
-4.5197e-05
-4.33964e-05
-4.19143e-05
-4.08446e-05
-4.02636e-05
-4.02267e-05
-4.07665e-05
-4.18913e-05
-4.35857e-05
-4.58112e-05
-4.85091e-05
-5.16039e-05
-5.50087e-05
-5.86305e-05
-6.23766e-05
-6.61604e-05
-6.99025e-05
-7.35334e-05
-7.69955e-05
-8.02428e-05
-8.324e-05
-8.59611e-05
-8.83873e-05
-9.05044e-05
-9.22992e-05
-9.37588e-05
-9.4862e-05
-9.54476e-05
-9.51302e-05
-9.42597e-05
-0.00214919
-0.00030071
-1.23691e-05
-5.49812e-05
-7.72739e-05
-8.40498e-05
-8.58855e-05
-8.51006e-05
-8.31305e-05
-8.0761e-05
-7.82795e-05
-7.57469e-05
-7.31441e-05
-7.04351e-05
-6.75953e-05
-6.46231e-05
-6.15438e-05
-5.84087e-05
-5.52914e-05
-5.22826e-05
-4.94823e-05
-4.69929e-05
-4.49114e-05
-4.33235e-05
-4.22983e-05
-4.18849e-05
-4.21107e-05
-4.29793e-05
-4.44703e-05
-4.65403e-05
-4.91249e-05
-5.21426e-05
-5.54996e-05
-5.90959e-05
-6.28339e-05
-6.66209e-05
-7.03727e-05
-7.40162e-05
-7.74911e-05
-8.07496e-05
-8.37555e-05
-8.64824e-05
-8.89115e-05
-9.10287e-05
-9.28214e-05
-9.42772e-05
-9.53763e-05
-9.59638e-05
-9.56693e-05
-9.48384e-05
-0.00539109
-0.00123619
-0.000559614
-0.000342782
-0.000238853
-0.000183968
-0.000152983
-0.000133437
-0.00011986
-0.000109755
-0.000101793
-9.5189e-05
-8.94453e-05
-8.42391e-05
-7.93647e-05
-7.47014e-05
-7.01941e-05
-6.58381e-05
-6.1668e-05
-5.77458e-05
-5.41511e-05
-5.09705e-05
-4.82886e-05
-4.61808e-05
-4.47079e-05
-4.3912e-05
-4.38144e-05
-4.44141e-05
-4.56861e-05
-4.75826e-05
-5.0034e-05
-5.29532e-05
-5.62404e-05
-5.97893e-05
-6.34976e-05
-6.72671e-05
-7.1009e-05
-7.46468e-05
-7.81177e-05
-8.13724e-05
-8.43737e-05
-8.70947e-05
-8.95165e-05
-9.16254e-05
-9.34093e-05
-9.48565e-05
-9.59481e-05
-9.65358e-05
-9.62637e-05
-9.54721e-05
-0.00258927
-0.00128582
-0.00078648
-0.000514019
-0.000359868
-0.000270819
-0.000216269
-0.000180839
-0.000156499
-0.000138878
-0.000125479
-0.000114805
-0.000105917
-9.82164e-05
-9.13166e-05
-8.49772e-05
-7.90607e-05
-7.35055e-05
-6.83053e-05
-6.34929e-05
-5.9126e-05
-5.52744e-05
-5.20093e-05
-4.9395e-05
-4.7483e-05
-4.6308e-05
-4.58852e-05
-4.62088e-05
-4.72501e-05
-4.89571e-05
-5.12562e-05
-5.40552e-05
-5.72487e-05
-6.07268e-05
-6.43818e-05
-6.81105e-05
-7.18202e-05
-7.54316e-05
-7.88796e-05
-8.21134e-05
-8.50949e-05
-8.77969e-05
-9.02004e-05
-9.22919e-05
-9.40596e-05
-9.54925e-05
-9.65726e-05
-9.7158e-05
-9.69061e-05
-9.6152e-05
-0.00164473
-0.00111831
-0.000786991
-0.000566246
-0.000423048
-0.000328235
-0.00026431
-0.000220128
-0.000188618
-0.000165355
-0.000147545
-0.000133394
-0.00012173
-0.000111776
-0.00010302
-9.51299e-05
-8.79022e-05
-8.12272e-05
-7.50634e-05
-6.94173e-05
-6.43263e-05
-5.98442e-05
-5.60292e-05
-5.29347e-05
-5.06027e-05
-4.90605e-05
-4.83175e-05
-4.83635e-05
-4.91663e-05
-5.06709e-05
-5.28e-05
-5.54579e-05
-5.85342e-05
-6.1917e-05
-6.54933e-05
-6.91562e-05
-7.28099e-05
-7.63724e-05
-7.9777e-05
-8.29715e-05
-8.5917e-05
-8.8586e-05
-9.09593e-05
-9.30235e-05
-9.47671e-05
-9.61797e-05
-9.7244e-05
-9.78235e-05
-9.75886e-05
-9.68688e-05
-0.00119031
-0.000941427
-0.000728251
-0.000565275
-0.000446344
-0.00035917
-0.000295561
-0.000248861
-0.00021403
-0.000187486
-0.000166731
-0.000150038
-0.00013621
-0.00012442
-0.000114103
-0.000104878
-9.65032e-05
-8.88374e-05
-8.18137e-05
-7.54186e-05
-6.96732e-05
-6.46178e-05
-6.02993e-05
-5.67609e-05
-5.40363e-05
-5.21458e-05
-5.10937e-05
-5.08656e-05
-5.14267e-05
-5.27192e-05
-5.46634e-05
-5.716e-05
-6.00972e-05
-6.336e-05
-6.68319e-05
-7.04033e-05
-7.3976e-05
-7.74664e-05
-8.08061e-05
-8.39422e-05
-8.68349e-05
-8.94564e-05
-9.17873e-05
-9.38141e-05
-9.55256e-05
-9.69114e-05
-9.7955e-05
-9.85249e-05
-9.8303e-05
-9.76133e-05
-0.000920209
-0.000791225
-0.000655348
-0.000538665
-0.000445006
-0.00037057
-0.000312503
-0.000267467
-0.000232361
-0.000204663
-0.000182431
-0.000164207
-0.000148923
-0.000135801
-0.000124289
-0.000114004
-0.000104693
-9.62003e-05
-8.84478e-05
-8.14094e-05
-7.50952e-05
-6.95359e-05
-6.47693e-05
-6.08309e-05
-5.77471e-05
-5.55326e-05
-5.41872e-05
-5.36932e-05
-5.40132e-05
-5.50874e-05
-5.68342e-05
-5.91521e-05
-6.19293e-05
-6.50481e-05
-6.83904e-05
-7.18447e-05
-7.53116e-05
-7.87063e-05
-8.19597e-05
-8.5018e-05
-8.78411e-05
-9.04005e-05
-9.26766e-05
-9.4656e-05
-9.63272e-05
-9.768e-05
-9.86982e-05
-9.92544e-05
-9.90408e-05
-9.83764e-05
-0.000747871
-0.000672903
-0.000584225
-0.00050171
-0.000430101
-0.000369146
-0.000318749
-0.000277682
-0.000244312
-0.000217065
-0.000194576
-0.000175738
-0.00015968
-0.000145737
-0.000133418
-0.000122369
-0.000112352
-0.000103217
-9.48825e-05
-8.73193e-05