/*--------------------------------*- C++ -*----------------------------------*\
  =========                 |
  \\      /  F ield         | OpenFOAM: The Open Source CFD Toolbox
   \\    /   O peration     | Website:  https://openfoam.org
    \\  /    A nd           | Version:  12
     \\/     M anipulation  |
\*---------------------------------------------------------------------------*/
/*   Windows 32 and 64 bit porting by blueCAPE: http://www.bluecape.com.pt   *\
|  Based on Windows porting (2.0.x v4) by Symscape: http://www.symscape.com   |
\*---------------------------------------------------------------------------*/
FoamFile
{
    format      ascii;
    class       surfaceScalarField;
    location    "1";
    object      phi;
}
// * * * * * * * * * * * * * * * * * * * * * * * * * * * * * * * * * * * * * //

dimensions      [0 3 -1 0 0 0 0];

internalField   nonuniform List<scalar> 
100160
(
0.000301166
-9.87144e-06
9.59718e-08
0.000296236
4.54577e-06
3.84138e-07
0.000288414
7.05653e-06
7.65535e-07
0.000279046
8.28809e-06
1.08002e-06
0.000268469
9.24271e-06
1.33447e-06
0.00025714
9.77952e-06
1.54909e-06
0.000245481
9.92286e-06
1.73597e-06
0.000233824
9.7578e-06
1.89996e-06
0.000222395
9.38079e-06
2.04747e-06
0.000211335
8.87416e-06
2.18645e-06
0.000200712
8.3014e-06
2.32088e-06
0.00019055
7.70804e-06
2.45423e-06
0.000180836
7.1249e-06
2.58893e-06
0.000171539
6.57122e-06
2.72625e-06
0.000162615
6.05785e-06
2.86639e-06
0.000154017
5.58968e-06
3.00843e-06
0.000145699
5.16747e-06
3.15053e-06
0.000137619
4.78934e-06
3.28984e-06
0.000129745
4.45173e-06
3.42276e-06
0.00012205
4.14999e-06
3.54516e-06
0.000114518
3.87903e-06
3.65269e-06
0.000107143
3.63367e-06
3.74097e-06
9.99285e-05
3.40893e-06
3.80599e-06
9.28838e-05
3.20031e-06
3.84434e-06
8.60263e-05
3.00394e-06
3.85352e-06
7.93775e-05
2.81672e-06
3.83216e-06
7.2961e-05
2.63636e-06
3.78011e-06
6.68014e-05
2.4612e-06
3.69842e-06
6.09217e-05
2.29034e-06
3.58932e-06
5.5342e-05
2.12367e-06
3.45604e-06
5.00779e-05
1.96157e-06
3.30255e-06
4.51399e-05
1.80468e-06
3.13326e-06
4.05334e-05
1.65381e-06
2.95276e-06
3.62579e-05
1.50986e-06
2.76559e-06
3.23082e-05
1.37369e-06
2.57603e-06
2.86742e-05
1.24603e-06
2.38794e-06
2.53421e-05
1.12746e-06
2.20467e-06
2.22947e-05
1.01839e-06
2.02901e-06
1.95124e-05
9.19027e-07
1.8632e-06
1.6974e-05
8.29413e-07
1.70899e-06
1.4657e-05
7.49461e-07
1.56762e-06
1.2538e-05
6.78983e-07
1.43999e-06
1.05936e-05
6.17729e-07
1.32668e-06
8.80002e-06
5.65439e-07
1.22811e-06
7.13354e-06
5.21873e-07
1.1446e-06
5.57024e-06
4.86796e-07
1.0765e-06
4.08662e-06
4.59584e-07
1.02403e-06
2.66381e-06
4.37217e-07
9.8559e-07
1.30539e-06
4.10435e-07
9.47989e-07
3.76493e-07
9.28892e-07
0.000299462
6.16249e-08
3.64923e-07
0.00029689
6.69212e-06
4.257e-07
0.000290437
1.29509e-05
5.58216e-07
0.000281104
1.68123e-05
8.08641e-07
0.000270166
1.91631e-05
1.01844e-06
0.000258427
2.03109e-05
1.20703e-06
0.000246422
2.05395e-05
1.38814e-06
0.000234507
2.01099e-05
1.56377e-06
0.0002229
1.92522e-05
1.73473e-06
0.000211725
1.81458e-05
1.90389e-06
0.000201034
1.692e-05
2.07244e-06
0.000190835
1.5665e-05
2.24179e-06
0.000181106
1.44412e-05
2.41295e-06
0.000171806
1.32852e-05
2.58625e-06
0.000162885
1.22171e-05
2.76128e-06
0.000154293
1.1245e-05
2.93679e-06
0.00014598
1.03695e-05
3.1106e-06
0.000137904
9.58601e-06
3.2797e-06
0.000130029
8.88696e-06
3.44024e-06
0.000122328
8.26259e-06
3.58795e-06
0.000114786
7.70243e-06
3.71826e-06
0.000107397
7.19601e-06
3.82661e-06
0.000100164
6.7333e-06
3.90876e-06
9.30982e-05
6.30521e-06
3.96118e-06
8.62169e-05
5.90389e-06
3.98127e-06
7.9543e-05
5.52298e-06
3.96768e-06
7.31013e-05
5.15766e-06
3.9204e-06
6.69171e-05
4.80473e-06
3.84068e-06
6.1014e-05
4.46244e-06
3.73101e-06
5.54126e-05
4.13012e-06
3.59495e-06
5.01291e-05
3.80822e-06
3.43686e-06
4.51743e-05
3.49786e-06
3.26154e-06
4.05537e-05
3.20045e-06
3.074e-06
3.62668e-05
2.9176e-06
2.87913e-06
3.23082e-05
2.65079e-06
2.68154e-06
2.86675e-05
2.40133e-06
2.48536e-06
2.53307e-05
2.17019e-06
2.29415e-06
2.22802e-05
1.95801e-06
2.11087e-06
1.94962e-05
1.76507e-06
1.93791e-06
1.69572e-05
1.59137e-06
1.77707e-06
1.46403e-05
1.43661e-06
1.62969e-06
1.25223e-05
1.30035e-06
1.49668e-06
1.05793e-05
1.182e-06
1.37867e-06
8.78774e-06
1.08091e-06
1.27613e-06
7.12359e-06
9.96434e-07
1.18959e-06
5.5625e-06
9.27765e-07
1.12012e-06
4.07846e-06
8.73426e-07
1.0702e-06
2.64716e-06
8.29461e-07
1.03905e-06
1.27972e-06
7.88992e-07
9.88879e-07
7.55268e-07
9.00947e-07
0.000308891
6.0571e-07
3.21621e-07
0.000303156
1.20359e-05
3.9055e-07
0.000294416
2.11429e-05
5.48488e-07
0.000283492
2.70113e-05
7.25206e-07
0.000271333
3.04295e-05
8.92013e-07
0.000258675
3.19097e-05
1.05922e-06
0.000246019
3.19641e-05
1.23163e-06
0.000233673
3.1048e-05
1.4078e-06
0.00022181
2.95283e-05
1.58676e-06
0.000210509
2.7679e-05
1.76813e-06
0.000199784
2.56926e-05
1.95173e-06
0.000189613
2.36984e-05
2.1378e-06
0.000179949
2.17787e-05
2.32655e-06
0.000170735
1.99816e-05
2.51792e-06
0.000161909
1.83315e-05
2.71115e-06
0.000153413
1.68365e-05
2.90469e-06
0.000145192
1.54945e-05
3.09613e-06
0.000137199
1.42963e-05
3.28224e-06
0.000129398
1.3229e-05
3.4591e-06
0.000121762
1.22771e-05
3.62213e-06
0.000114273
1.14243e-05
3.76645e-06
0.000106928
1.06545e-05
3.88718e-06
9.97287e-05
9.95245e-06
3.97982e-06
9.2689e-05
9.30439e-06
4.04056e-06
8.58278e-05
8.69846e-06
4.06661e-06
7.91692e-05
8.125e-06
4.05663e-06
7.27395e-05
7.57675e-06
4.0106e-06
6.65655e-05
7.04878e-06
3.92997e-06
6.06722e-05
6.53826e-06
3.81747e-06
5.50811e-05
6.04421e-06
3.67699e-06
4.9809e-05
5.567e-06
3.51326e-06
4.48673e-05
5.10803e-06
3.33152e-06
4.02614e-05
4.66929e-06
3.1371e-06
3.59908e-05
4.25291e-06
2.93524e-06
3.20499e-05
3.86093e-06
2.73082e-06
2.8428e-05
3.49509e-06
2.52815e-06
2.51106e-05
3.15665e-06
2.33096e-06
2.20799e-05
2.84641e-06
2.14229e-06
1.93157e-05
2.56467e-06
1.96455e-06
1.67962e-05
2.31129e-06
1.79954e-06
1.44985e-05
2.08575e-06
1.64859e-06
1.2399e-05
1.88729e-06
1.51257e-06
1.0474e-05
1.71492e-06
1.39211e-06
8.69958e-06
1.56759e-06
1.2877e-06
7.05186e-06
1.44412e-06
1.20002e-06
5.50567e-06
1.34322e-06
1.13074e-06
4.03261e-06
1.26309e-06
1.08339e-06
2.60638e-06
1.20092e-06
1.05478e-06
1.25017e-06
1.15406e-06
9.9113e-07
1.12166e-06
8.83786e-07
0.000319068
1.71246e-06
2.83647e-07
0.000311468
1.9182e-05
4.54531e-07
0.000300231
3.17092e-05
6.69936e-07
0.000286958
3.94565e-05
8.27781e-07
0.00027288
4.35337e-05
9.741e-07
0.000258794
4.48682e-05
1.12737e-06
0.000245158
4.43101e-05
1.29051e-06
0.000232197
4.25476e-05
1.46148e-06
0.000219994
4.00933e-05
1.6381e-06
0.000208547
3.73066e-05
1.81901e-06
0.000197809
3.44272e-05
2.00366e-06
0.000187708
3.16077e-05
2.192e-06
0.000178163
2.89393e-05
2.38418e-06
0.000169093
2.64713e-05
2.58007e-06
0.000160421
2.42246e-05
2.77893e-06
0.000152076
2.22018e-05
2.97918e-06
0.000143998
2.03943e-05
3.1783e-06
0.000136136
1.87859e-05
3.37282e-06
0.00012845
1.73568e-05
3.55847e-06
0.000120912
1.60846e-05
3.73028e-06
0.000113506
1.49469e-05
3.8829e-06
0.000106228
1.39217e-05
4.01097e-06
9.90829e-05
1.29882e-05
4.10946e-06
9.20851e-05
1.2128e-05
4.17415e-06
8.52562e-05
1.13254e-05
4.20194e-06
7.86226e-05
1.05674e-05
4.19118e-06
7.2213e-05
9.84436e-06
4.14195e-06
6.60563e-05
9.14963e-06
4.05584e-06
6.01793e-05
8.47938e-06
3.93589e-06
5.4605e-05
7.83215e-06
3.78641e-06
4.93511e-05
7.20831e-06
3.61259e-06
4.44294e-05
6.6095e-06
3.42014e-06
3.98457e-05
6.03811e-06
3.21488e-06
3.55994e-05
5.49676e-06
3.00243e-06
3.16845e-05
4.98793e-06
2.78796e-06
2.80899e-05
4.51368e-06
2.57601e-06
2.48006e-05
4.07551e-06
2.37045e-06
2.17983e-05
3.6743e-06
2.17439e-06
1.90624e-05
3.3103e-06
1.99023e-06
1.65708e-05
2.9832e-06
1.81976e-06
1.43001e-05
2.69223e-06
1.66423e-06
1.22266e-05
2.43628e-06
1.52444e-06
1.03266e-05
2.21399e-06
1.40096e-06
8.57607e-06
2.02389e-06
1.29422e-06
6.9509e-06
1.86437e-06
1.20493e-06
5.42542e-06
1.73378e-06
1.13491e-06
3.97034e-06
1.63028e-06
1.08789e-06
2.55974e-06
1.55196e-06
1.05956e-06
1.22297e-06
1.49776e-06
9.93062e-07
1.46294e-06
8.8169e-07
0.000334535
3.31962e-06
5.71817e-07
0.00032335
2.96745e-05
6.92122e-07
0.000307982
4.6248e-05
8.29004e-07
0.000291133
5.53628e-05
9.42513e-07
0.000274323
5.928e-05
1.06434e-06
0.000258328
5.96573e-05
1.2059e-06
0.000243464
5.78089e-05
1.3648e-06
0.000229791
5.46857e-05
1.53541e-06
0.000217239
5.09312e-05
1.71344e-06
0.000205689
4.69604e-05
1.89661e-06
0.000195003
4.30288e-05
2.08423e-06
0.000185048
3.92866e-05
2.27646e-06
0.0001757
3.58138e-05
2.47371e-06
0.000166849
3.26461e-05
2.67607e-06
0.000158399
2.97912e-05
2.88291e-06
0.000150269
2.72395e-05
3.09262e-06
0.000142389
2.49713e-05
3.3025e-06
0.000134706
2.29607e-05
3.50881e-06
0.000127176
2.11793e-05
3.70679e-06
0.000119773
1.95971e-05
3.89092e-06
0.00011248
1.81849e-05
4.0552e-06
0.000105293
1.69144e-05
4.19356e-06
9.82217e-05
1.57597e-05
4.30027e-06
9.12815e-05
1.46977e-05
4.3705e-06
8.44973e-05
1.37088e-05
4.4007e-06
7.78988e-05
1.2777e-05
4.38894e-06
7.15176e-05
1.18903e-05
4.33524e-06
6.53855e-05
1.10403e-05
4.24148e-06
5.95315e-05
1.02222e-05
4.11112e-06
5.39806e-05
9.43407e-06
3.949e-06
4.87518e-05
8.67613e-06
3.76102e-06
4.38576e-05
7.95014e-06
3.55354e-06
3.93039e-05
7.25877e-06
3.33301e-06
3.50902e-05
6.60494e-06
3.1056e-06
3.12098e-05
5.99141e-06
2.87689e-06
2.76513e-05
5.42044e-06
2.65176e-06
2.43989e-05
4.89362e-06
2.43425e-06
2.14338e-05
4.41181e-06
2.22756e-06
1.87349e-05
3.97512e-06
2.03413e-06
1.62794e-05
3.58302e-06
1.85569e-06
1.40437e-05
3.23447e-06
1.6934e-06
1.2004e-05
2.92801e-06
1.548e-06
1.01361e-05
2.6619e-06
1.41991e-06
8.41626e-06
2.4343e-06
1.30947e-06
6.82004e-06
2.24326e-06
1.21734e-06
5.32169e-06
2.08686e-06
1.14526e-06
3.89186e-06
1.96329e-06
1.09683e-06
2.50551e-06
1.87101e-06
1.0673e-06
1.19461e-06
1.80931e-06
9.99353e-07
1.77059e-06
8.86951e-07
0.000357588
7.42627e-06
1.12365e-06
0.000339224
4.69803e-05
1.05837e-06
0.000317235
6.72771e-05
9.59947e-07
0.000295267
7.63325e-05
9.97573e-07
0.000274887
7.85678e-05
1.09267e-06
0.000256616
7.66999e-05
1.22833e-06
0.000240433
7.26003e-05
1.39181e-06
0.000226095
6.74529e-05
1.57075e-06
0.000213305
6.19637e-05
1.75767e-06
0.00020178
5.65359e-05
1.94943e-06
0.000191274
5.13892e-05
2.14549e-06
0.000181582
4.66318e-05
2.34661e-06
0.000172535
4.23068e-05
2.55377e-06
0.000163995
3.84191e-05
2.76742e-06
0.000155847
3.49518e-05
2.98709e-06
0.000147999
3.1876e-05
3.21119e-06
0.000140377
2.91566e-05
3.43684e-06
0.000132922
2.67556e-05
3.65992e-06
0.000125592
2.46342e-05
3.87516e-06
0.000118359
2.27543e-05
4.07637e-06
0.000111207
2.10795e-05
4.25673e-06
0.000104137
1.95754e-05
4.40931e-06
9.71581e-05
1.8211e-05
4.52755e-06
9.02911e-05
1.69589e-05
4.60585e-06
8.35642e-05
1.57957e-05
4.64008e-06
7.70108e-05
1.47024e-05
4.62802e-06
7.06665e-05
1.36649e-05
4.56962e-06
6.45664e-05
1.26733e-05
4.46706e-06
5.87425e-05
1.17217e-05
4.3244e-06
5.32219e-05
1.08075e-05
4.14722e-06
4.80251e-05
9.93073e-06
3.94221e-06
4.31655e-05
9.09307e-06
3.7166e-06
3.86494e-05
8.29725e-06
3.47763e-06
3.4476e-05
7.54629e-06
3.23212e-06
3.06381e-05
6.84302e-06
2.9862e-06
2.71238e-05
6.18969e-06
2.74511e-06
2.39164e-05
5.58783e-06
2.51314e-06
2.09965e-05
5.03814e-06
2.2936e-06
1.83422e-05
4.5405e-06
2.08894e-06
1.59302e-05
4.09411e-06
1.90085e-06
1.37367e-05
3.69761e-06
1.73039e-06
1.17374e-05
3.34917e-06
1.57815e-06
9.90811e-06
3.04675e-06
1.44443e-06
8.22484e-06
2.78813e-06
1.32944e-06
6.66332e-06
2.57109e-06
1.23368e-06
5.19786e-06
2.39353e-06
1.1588e-06
3.79941e-06
2.25355e-06
1.10818e-06
2.44371e-06
2.14971e-06
1.07699e-06
1.16366e-06
2.08123e-06
1.00812e-06
2.03848e-06
8.9577e-07
0.000391756
2.04678e-05
2.13479e-06
0.000359124
7.80522e-05
1.56009e-06
0.000326805
9.86081e-05
9.87501e-07
0.00029794
0.000104234
9.6414e-07
0.000273317
0.000102133
1.05725e-06
0.000252702
9.61086e-05
1.20664e-06
0.000235394
8.85181e-05
1.38981e-06
0.000220668
8.05924e-05
1.58727e-06
0.000207912
7.29297e-05
1.78941e-06
0.000196652
6.58024e-05
1.99365e-06
0.000186526
5.93142e-05
2.201e-06
0.000177261
5.34835e-05
2.41353e-06
0.000168648
4.82866e-05
2.63309e-06
0.000160526
4.36803e-05
2.86068e-06
0.000152769
3.96128e-05
3.09607e-06
0.000145277
3.60301e-05
3.33765e-06
0.000137973
3.28782e-05
3.58235e-06
0.000130798
3.01051e-05
3.82563e-06
0.00012371
2.7661e-05
4.06163e-06
0.000116681
2.54994e-05
4.28334e-06
0.000109701
2.35767e-05
4.48305e-06
0.000102771
2.18531e-05
4.65281e-06
9.5904e-05
2.02925e-05
4.78504e-06
8.91261e-05
1.88636e-05
4.87325e-06
8.24694e-05
1.75397e-05
4.91264e-06
7.59719e-05
1.62993e-05
4.90061e-06
6.96737e-05
1.51261e-05
4.83708e-06
6.36137e-05
1.40087e-05
4.72458e-06
5.78273e-05
1.29402e-05
4.56784e-06
5.23441e-05
1.19173e-05
4.37337e-06
4.71865e-05
1.09395e-05
4.14881e-06
4.23689e-05
1.00083e-05
3.90239e-06
3.78976e-05
9.1262e-06
3.64227e-06
3.37719e-05
8.296e-06
3.37607e-06
2.9984e-05
7.52036e-06
3.1105e-06
2.65211e-05
6.80133e-06
2.85125e-06
2.3366e-05
6.14016e-06
2.60284e-06
2.04981e-05
5.53725e-06
2.36872e-06
1.78951e-05
4.99218e-06
2.15135e-06
1.55331e-05
4.50379e-06
1.95235e-06
1.33877e-05
4.07036e-06
1.77265e-06
1.14344e-05
3.68974e-06
1.61269e-06
9.649e-06
3.35955e-06
1.4726e-06
8.00738e-06
3.0773e-06
1.35245e-06
6.4854e-06
2.84052e-06
1.25255e-06
5.05759e-06
2.64693e-06
1.1744e-06
3.6954e-06
2.49456e-06
1.12119e-06
2.3751e-06
2.38189e-06
1.08812e-06
1.12984e-06
2.30801e-06
1.01848e-06
2.26183e-06
9.06489e-07
0.000441751
6.15775e-05
3.43339e-06
0.000381645
0.000135949
2.20964e-06
0.000334156
0.000145166
9.31239e-07
0.000296678
0.000140868
8.44054e-07
0.000267732
0.00013011
9.68855e-07
0.000245336
0.000117345
1.15982e-06
0.000227579
0.000104894
1.38012e-06
0.000213059
9.35084e-05
1.60418e-06
0.00020081
8.33551e-05
1.82387e-06
0.000190174
7.43978e-05
2.04079e-06
0.000180697
6.65312e-05
2.25918e-06
0.000172062
5.96353e-05
2.4831e-06
0.000164038
5.3595e-05
2.71551e-06
0.000156455
4.8306e-05
2.95792e-06
0.000149182
4.36751e-05
3.21031e-06
0.000142121
3.962e-05
3.47102e-06
0.000135196
3.60665e-05
3.73671e-06
0.000128351
3.29484e-05
4.00236e-06
0.000121545
3.02054e-05
4.26141e-06
0.000114756
2.77826e-05
4.506e-06
0.000107975
2.56304e-05
4.72736e-06
0.000101208
2.37038e-05
4.9164e-06
9.44729e-05
2.19627e-05
5.06442e-06
8.78002e-05
2.03724e-05
5.16387e-06
8.12273e-05
1.89034e-05
5.20919e-06
7.47971e-05
1.75321e-05
5.19734e-06
6.85548e-05
1.62402e-05
5.12823e-06
6.25438e-05
1.50149e-05
5.00478e-06
5.68032e-05
1.38484e-05
4.83249e-06
5.13652e-05
1.27363e-05
4.6189e-06
4.62543e-05
1.16777e-05
4.37277e-06
4.14858e-05
1.06734e-05
4.10347e-06
3.70665e-05
9.72529e-06
3.82017e-06
3.29953e-05
8.83584e-06
3.53134e-06
2.92641e-05
8.0072e-06
3.24438e-06
2.58591e-05
7.24093e-06
2.96539e-06
2.27622e-05
6.53785e-06
2.69919e-06
1.99522e-05
5.8979e-06
2.44933e-06
1.74059e-05
5.32022e-06
2.21827e-06
1.50989e-05
4.80326e-06
2.00754e-06
1.30064e-05
4.34495e-06
1.81793e-06
1.11036e-05
3.9428e-06
1.64971e-06
9.36621e-06
3.59414e-06
1.50282e-06
7.77015e-06
3.29623e-06
1.37713e-06
6.29142e-06
3.04644e-06
1.2728e-06
4.90491e-06
2.84232e-06
1.19112e-06
3.58254e-06
2.68181e-06
1.13511e-06
2.30106e-06
2.56334e-06
1.10004e-06
1.09356e-06
2.48585e-06
1.02966e-06
2.43722e-06
9.18167e-07
0.000516085
0.000189294
1.5637e-06
0.0004014
0.000248914
1.71907e-06
0.000332251
0.000213823
4.91411e-07
0.000286616
0.000185948
5.54473e-07
0.000255385
0.000160482
8.58996e-07
0.000233076
0.000138519
1.1348e-06
0.000216264
0.000120309
1.3974e-06
0.000202926
0.000105203
1.64334e-06
0.000191853
9.25544e-05
1.87398e-06
0.0001823
8.18524e-05
2.098e-06
0.000173793
7.27151e-05
2.32356e-06
0.000166013
6.48582e-05
2.5565e-06
0.000158741
5.80666e-05
2.80048e-06
0.000151817
5.21732e-05
3.05724e-06
0.000145121
4.70445e-05
3.32674e-06
0.000138562
4.25712e-05
3.60709e-06
0.000132073
3.8661e-05
3.89458e-06
0.000125603
3.52348e-05
4.18366e-06
0.000119118
3.22233e-05
4.46701e-06
0.0001126
2.95651e-05
4.73583e-06
0.000106045
2.72053e-05
4.98023e-06
9.94637e-05
2.50951e-05
5.18988e-06
9.28801e-05
2.31915e-05
5.35481e-06
8.6329e-05
2.14571e-05
5.46637e-06
7.98539e-05
1.98604e-05
5.51811e-06
7.35035e-05
1.8376e-05
5.50653e-06
6.7328e-05
1.69841e-05
5.43152e-06
6.13758e-05
1.56707e-05
5.29642e-06
5.56898e-05
1.44268e-05
5.1076e-06
5.03054e-05
1.32471e-05
4.87372e-06
4.52488e-05
1.21295e-05
4.60478e-06
4.05366e-05
1.10742e-05
4.31134e-06
3.6176e-05
1.00822e-05
4.00369e-06
3.21656e-05
9.15501e-06
3.69118e-06
2.84968e-05
8.2941e-06
3.38189e-06
2.51551e-05
7.50032e-06
3.0824e-06
2.21213e-05
6.77379e-06
2.79778e-06
1.93737e-05
6.11388e-06
2.53167e-06
1.68881e-05
5.51922e-06
2.28653e-06
1.46398e-05
4.98782e-06
2.06377e-06
1.26035e-05
4.51722e-06
1.86402e-06
1.07543e-05
4.10464e-06
1.68735e-06
9.06775e-06
3.74718e-06
1.53353e-06
7.51987e-06
3.44191e-06
1.4022e-06
6.08691e-06
3.18605e-06
1.29335e-06
4.74408e-06
2.97707e-06
1.20808e-06
3.46386e-06
2.81283e-06
1.14921e-06
2.22339e-06
2.69171e-06
1.11209e-06
1.05559e-06
2.61261e-06
1.04103e-06
2.5627e-06
9.30114e-07
0.000626626
0.000467282
4.75204e-06
0.000434652
0.000431054
9.83454e-06
0.000320324
0.000324977
3.1743e-06
0.000264597
0.000240698
9.77145e-07
0.000234286
0.000189788
1.00501e-06
0.000215005
0.000156556
1.2433e-06
0.000201138
0.000132681
1.4946e-06
0.000190236
0.000114376
1.72972e-06
0.000181114
9.97255e-05
1.95046e-06
0.000173135
8.76631e-05
2.16903e-06
0.000165914
7.75409e-05
2.39445e-06
0.000159205
6.89351e-05
2.63217e-06
0.000152835
6.15516e-05
2.88526e-06
0.000146678
5.51754e-05
3.15492e-06
0.000140639
4.96428e-05
3.44064e-06
0.000134645
4.48248e-05
3.74014e-06
0.000128641
4.06158e-05
4.0492e-06
0.000122587
3.69277e-05
4.36166e-06
0.000116456
3.36849e-05
4.66944e-06
0.000110236
3.08216e-05
4.96274e-06
0.000103931
2.82797e-05
5.23052e-06
9.75571e-05
2.60082e-05
5.46116e-06
9.1143e-05
2.39622e-05
5.64341e-06
8.473e-05
2.21028e-05
5.7674e-06
7.83673e-05
2.03973e-05
5.82577e-06
7.21097e-05
1.88191e-05
5.81451e-06
6.6013e-05
1.73473e-05
5.73349e-06
6.01303e-05
1.59669e-05
5.58652e-06
5.45087e-05
1.46675e-05
5.38089e-06
4.91865e-05
1.34428e-05
5.1264e-06
4.41921e-05
1.22895e-05
4.83436e-06
3.95434e-05
1.12064e-05
4.51659e-06
3.52477e-05
1.01934e-05
4.18446e-06
3.13037e-05
9.25079e-06
3.84826e-06
2.7702e-05
8.37901e-06
3.51673e-06
2.44275e-05
7.57792e-06
3.19688e-06
2.14605e-05
6.84681e-06
2.89402e-06
1.87781e-05
6.18433e-06
2.61191e-06
1.63559e-05
5.58851e-06
2.35293e-06
1.41684e-05
5.05691e-06
2.11837e-06
1.21902e-05
4.5867e-06
1.90871e-06
1.03962e-05
4.17485e-06
1.72382e-06
8.76192e-06
3.81825e-06
1.56323e-06
7.26353e-06
3.51387e-06
1.42643e-06
5.87753e-06
3.25885e-06
1.31319e-06
4.57953e-06
3.05063e-06
1.22443e-06
3.34253e-06
2.88705e-06
1.16278e-06
2.14408e-06
2.76648e-06
1.12368e-06
1.01687e-06
2.68782e-06
1.052e-06
2.63783e-06
9.41738e-07
0.000149333
0.000307185
1.07638e-05
0.000196797
0.000372336
1.12543e-05
0.000211149
0.000308155
2.47094e-06
0.000207526
0.000242636
1.6849e-06
0.000199074
0.000196519
1.72077e-06
0.00019043
0.000163517
1.68285e-06
0.000182544
0.000138818
1.74929e-06
0.000175444
0.000119591
1.8845e-06
0.000168973
0.000104141
2.05536e-06
0.000162963
9.14217e-05
2.25079e-06
0.000157276
8.07605e-05
2.46774e-06
0.000151799
7.17065e-05
2.70586e-06
0.000146442
6.39431e-05
2.96537e-06
0.000141133
5.72388e-05
3.246e-06
0.000135811
5.14182e-05
3.5464e-06
0.000130428
4.63438e-05
3.86366e-06
0.000124946
4.19045e-05
4.19301e-06
0.000119338
3.80083e-05
4.52765e-06
0.000113587
3.4577e-05
4.85874e-06
0.00010769
3.15432e-05
5.17554e-06
0.000101656
2.8848e-05
5.46587e-06
9.55079e-05
2.64398e-05
5.71685e-06
8.92808e-05
2.42733e-05
5.91592e-06
8.3022e-05
2.23096e-05
6.05204e-06
7.67869e-05
2.05155e-05
6.11691e-06
7.0636e-05
1.88639e-05
6.10601e-06
6.46308e-05
1.73334e-05
6.01918e-06
5.88292e-05
1.59077e-05
5.86071e-06
5.32824e-05
1.45755e-05
5.63881e-06
4.80318e-05
1.3329e-05
5.36443e-06
4.31077e-05
1.21634e-05
5.05019e-06
3.85291e-05
1.10759e-05
4.7091e-06
3.4304e-05
1.00648e-05
4.35362e-06
3.04308e-05
9.12907e-06
3.99491e-06
2.68999e-05
8.2676e-06
3.64231e-06
2.36954e-05
7.47911e-06
3.30326e-06
2.0797e-05
6.7619e-06
2.98328e-06
1.81814e-05
6.11379e-06
2.68617e-06
1.58235e-05
5.53219e-06
2.41426e-06
1.36975e-05
5.01417e-06
2.16873e-06
1.17777e-05
4.55658e-06
1.94987e-06
1.0039e-05
4.15618e-06
1.75735e-06
8.457e-06
3.80974e-06
1.59052e-06
7.00804e-06
3.51416e-06
1.44866e-06
5.66892e-06
3.26659e-06
1.33138e-06
4.41565e-06
3.06451e-06
1.23939e-06
3.22176e-06
2.90578e-06
1.17516e-06
2.06519e-06
2.78881e-06
1.13423e-06
9.78382e-07
2.71259e-06
1.06204e-06
2.66371e-06
9.52503e-07
2.79548e-05
0.000267754
1.14759e-05
9.80386e-05
0.000292738
9.51407e-06
0.000141786
0.000260573
3.83439e-06
0.000159684
0.000222378
2.36093e-06
0.000165131
0.000189001
2.07107e-06
0.000165252
0.000161454
1.94167e-06
0.000163064
0.000139074
1.93184e-06
0.000159852
0.000120793
2.01088e-06
0.000156168
0.000105678
2.14719e-06
0.000152248
9.30177e-05
2.32392e-06
0.000148186
8.229e-05
2.53294e-06
0.00014401
7.31119e-05
2.77059e-06
0.000139719
6.51989e-05
3.03508e-06
0.000135298
5.8335e-05
3.32494e-06
0.000130725
5.23526e-05
3.63805e-06
0.00012598
4.71182e-05
3.9709e-06
0.000121043
4.25233e-05
4.31824e-06
0.000115901
3.84777e-05
4.6727e-06
0.000110549
3.49046e-05
5.02471e-06
0.000104991
3.17382e-05
5.36269e-06
9.92443e-05
2.89211e-05
5.67343e-06
9.33381e-05
2.6403e-05
5.9429e-06
8.73142e-05
2.41399e-05
6.15733e-06
8.12253e-05
2.20939e-05
6.30456e-06
7.5133e-05
2.02324e-05
6.37542e-06
6.91034e-05
1.85286e-05
6.36488e-06
6.32033e-05
1.69607e-05
6.2728e-06
5.74953e-05
1.55118e-05
6.1039e-06
5.20343e-05
1.41692e-05
5.86725e-06
4.68647e-05
1.29238e-05
5.5749e-06
4.20188e-05
1.17687e-05
5.24064e-06
3.75167e-05
1.06994e-05
4.87861e-06
3.3367e-05
9.71227e-06
4.50224e-06
2.95682e-05
8.80445e-06
4.12345e-06
2.61103e-05
7.97329e-06
3.75216e-06
2.29772e-05
7.21611e-06
3.39612e-06
2.0148e-05
6.53007e-06
3.06103e-06
1.75989e-05
5.91212e-06
2.75073e-06
1.53046e-05
5.35899e-06
2.4675e-06
1.32391e-05
4.8673e-06
2.21237e-06
1.13766e-05
4.4336e-06
1.98548e-06
9.69198e-06
4.0545e-06
1.78633e-06
8.16091e-06
3.72673e-06
1.61408e-06
6.76004e-06
3.4472e-06
1.46783e-06
5.46647e-06
3.21313e-06
1.34703e-06
4.25664e-06
3.02209e-06
1.25224e-06
3.10461e-06
2.87206e-06
1.18575e-06
1.98871e-06
2.76151e-06
1.14321e-06
9.41104e-07
2.68954e-06
1.07065e-06
2.64288e-06
9.61926e-07
2.47967e-05
0.000235664
7.29318e-06
7.13968e-05
0.000240759
5.37894e-06
0.000105875
0.000223215
2.87896e-06
0.000126359
0.000199774
2.11955e-06
0.000137379
0.000175972
2.00946e-06
0.000142676
0.00015418
1.97742e-06
0.000144638
0.000135115
1.99693e-06
0.000144637
0.000118718
2.07586e-06
0.00014344
0.00010467
2.20488e-06
0.000141473
9.26088e-05
2.37529e-06
0.000138974
8.22076e-05
2.58144e-06
0.000136072
7.31937e-05
2.82003e-06
0.000132837
6.53455e-05
3.089e-06
0.000129301
5.8484e-05
3.38648e-06
0.00012548
5.2464e-05
3.70993e-06
0.000121376
4.71663e-05
4.05552e-06
0.00011699
4.2492e-05
4.41759e-06
0.000112322
3.83576e-05
4.78832e-06
0.000107377
3.46917e-05
5.1576e-06
0.000102169
3.14329e-05
5.51312e-06
9.67223e-05
2.85273e-05
5.84082e-06
9.10717e-05
2.59279e-05
6.12569e-06
8.52652e-05
2.35935e-05
6.35297e-06
7.93613e-05
2.14882e-05
6.50954e-06
7.34269e-05
1.95813e-05
6.58547e-06
6.75335e-05
1.78467e-05
6.57532e-06
6.17526e-05
1.62627e-05
6.4789e-06
5.6151e-05
1.4812e-05
6.30138e-06
5.07872e-05
1.34805e-05
6.05252e-06
4.57082e-05
1.22575e-05
5.74534e-06
4.09481e-05
1.11342e-05
5.39459e-06
3.65283e-05
1.01038e-05
5.01537e-06
3.2458e-05
9.16063e-06
4.62191e-06
2.87359e-05
8.29977e-06
4.22675e-06
2.53522e-05
7.51681e-06
3.84026e-06
2.22902e-05
6.80757e-06
3.47046e-06
1.95292e-05
6.16797e-06
3.12316e-06
1.7045e-05
5.59405e-06
2.80224e-06
1.48122e-05
5.08188e-06
2.5099e-06
1.28048e-05
4.62765e-06
2.24708e-06
1.09969e-05
4.22767e-06
2.01377e-06
9.36367e-06
3.87845e-06
1.80931e-06
7.88093e-06
3.57673e-06
1.63274e-06
6.52559e-06
3.31954e-06
1.48299e-06
5.27511e-06
3.10421e-06
1.3594e-06
4.10635e-06
2.92848e-06
1.26237e-06
2.99391e-06
2.79046e-06
1.19404e-06
1.91646e-06
2.68876e-06
1.15019e-06
9.05923e-07
2.62263e-06
1.07744e-06
2.57921e-06
9.69593e-07
2.47035e-05
0.000206267
4.69387e-06
5.6713e-05
0.000205516
3.23314e-06
8.35804e-05
0.000194346
2.00169e-06
0.000102893
0.000178674
1.7879e-06
0.00011564
0.000161362
1.86337e-06
0.000123572
0.000144323
1.92431e-06
0.000128182
0.000128512
1.99267e-06
0.000130534
0.000114274
2.0925e-06
0.000131334
0.000101642
2.22901e-06
0.000131037
9.05034e-05
2.40182e-06
0.000129933
8.07019e-05
2.6094e-06
0.000128203
7.20734e-05
2.85032e-06
0.000125959
6.44666e-05
3.12323e-06
0.000123268
5.77482e-05
3.42645e-06
0.000120172
5.18031e-05
3.75744e-06
0.000116693
4.65326e-05
4.1122e-06
0.000112849
4.18521e-05
4.48486e-06
0.00010865
3.76888e-05
4.86731e-06
0.000104113
3.39796e-05
5.24903e-06
9.92593e-05
3.06694e-05
5.61723e-06
9.41191e-05
2.77103e-05
5.95721e-06
8.8734e-05
2.50597e-05
6.25328e-06
8.3157e-05
2.26805e-05
6.48993e-06
7.74518e-05
2.05401e-05
6.65335e-06
7.169e-05
1.86101e-05
6.73305e-06
6.59475e-05
1.68659e-05
6.72328e-06
6.03e-05
1.52864e-05
6.62383e-06
5.48179e-05
1.38538e-05
6.44018e-06
4.95626e-05
1.25532e-05
6.18264e-06
4.45834e-05
1.13718e-05
5.86489e-06
3.99164e-05
1.02988e-05
5.50242e-06
3.55839e-05
9.32525e-06
5.111e-06
3.15961e-05
8.44302e-06
4.70545e-06
2.7952e-05
7.64512e-06
4.29875e-06
2.4642e-05
6.92525e-06
3.90156e-06
2.16498e-05
6.27766e-06
3.52209e-06
1.89545e-05
5.69704e-06
3.16625e-06
1.65321e-05
5.17849e-06
2.8379e-06
1.43573e-05
4.71745e-06
2.53921e-06
1.24042e-05
4.30972e-06
2.27104e-06
1.06472e-05
3.95141e-06
2.03327e-06
9.06151e-06
3.63901e-06
1.82515e-06
7.62334e-06
3.36932e-06
1.64557e-06
6.30993e-06
3.13953e-06
1.49341e-06
5.0991e-06
2.94718e-06
1.36787e-06
3.96812e-06
2.79018e-06
1.26927e-06
2.89209e-06
2.66686e-06
1.19962e-06
1.85004e-06
2.576e-06
1.15481e-06
8.73577e-07
2.517e-06
1.08209e-06
2.47758e-06
9.75204e-07
2.2181e-05
0.000180648
3.43752e-06
4.65968e-05
0.00017875
2.35073e-06
6.84741e-05
0.000170859
1.61025e-06
8.58614e-05
0.000159694
1.59264e-06
9.87142e-05
0.000146766
1.74312e-06
0.00010779
0.000133392
1.85585e-06
0.000113937
0.000120405
1.95958e-06
0.00011788
0.000108252
2.08003e-06
0.000120172
9.71221e-05
2.22745e-06
0.000121214
8.70557e-05
2.40583e-06
0.000121286
7.80131e-05
2.61659e-06
0.000120581
6.99187e-05
2.86e-06
0.000119227
6.26843e-05
3.13563e-06
0.000117312
5.62211e-05
3.44223e-06
0.000114892
5.04457e-05
3.7774e-06
0.000112005
4.52823e-05
4.13717e-06
0.000108679
4.06631e-05
4.51558e-06
0.000104935
3.65279e-05
4.90438e-06
0.000100798
3.28237e-05
5.29285e-06
9.62959e-05
2.95038e-05
5.66791e-06
9.14649e-05
2.65268e-05
6.01456e-06
8.63516e-05
2.38562e-05
6.31673e-06
8.10138e-05
2.14598e-05
6.55851e-06
7.55193e-05
1.9309e-05
6.72572e-06
6.99435e-05
1.73783e-05
6.80759e-06
6.4366e-05
1.56452e-05
6.79818e-06
5.88656e-05
1.40895e-05
6.69729e-06
5.35156e-05
1.26933e-05
6.51058e-06
4.83797e-05
1.14405e-05
6.24863e-06
4.35091e-05
1.03168e-05
5.92547e-06
3.89415e-05
9.30944e-06
5.55701e-06
3.47006e-05
8.40684e-06
5.15935e-06
3.07972e-05
7.59877e-06
4.74762e-06
2.72312e-05
6.87605e-06
4.33503e-06
2.39936e-05
6.23049e-06
3.93239e-06
2.10685e-05
5.65478e-06
3.54801e-06
1.84353e-05
5.14239e-06
3.18784e-06
1.60705e-05
4.68752e-06
2.85574e-06
1.39491e-05
4.28503e-06
2.55385e-06
1.20454e-05
3.93036e-06
2.28298e-06
1.03344e-05
3.61949e-06
2.04297e-06
8.79146e-06
3.34893e-06
1.833e-06
7.39324e-06
3.11561e-06
1.65193e-06
6.11732e-06
2.9169e-06
1.49855e-06
4.94188e-06
2.75059e-06
1.37202e-06
3.84464e-06
2.61482e-06
1.2726e-06
2.80113e-06
2.50816e-06
1.2022e-06
1.79073e-06
2.42956e-06
1.15684e-06
8.44737e-07
2.37863e-06
1.08435e-06
2.34382e-06
9.785e-07
1.92286e-05
0.000158633
2.78655e-06
3.91803e-05
0.00015686
1.93808e-06
5.76119e-05
0.00015099
1.43667e-06
7.31338e-05
0.000142683
1.48916e-06
8.54492e-05
0.00013279
1.65988e-06
9.48537e-05
0.000122193
1.79399e-06
0.000101802
0.00011154
1.91712e-06
0.000106751
0.000101251
2.05154e-06
0.000110098
9.15671e-05
2.20776e-06
0.000112161
8.26018e-05
2.39118e-06
0.00011318
7.43886e-05
2.6046e-06
0.000113336
6.69141e-05
2.84937e-06
0.000112755
6.01396e-05
3.12572e-06
0.000111528
5.40145e-05
3.43279e-06
0.000109721
4.84844e-05
3.76838e-06
0.00010738
4.34956e-05
4.12859e-06
0.000104538
3.89973e-05
4.50749e-06
0.000101226
3.49429e-05
4.89682e-06
9.74738e-05
3.12901e-05
5.28583e-06
9.3315e-05
2.80011e-05
5.66143e-06
8.87909e-05
2.50423e-05
6.00861e-06
8.39522e-05
2.23836e-05
6.31127e-06
7.88603e-05
1.99982e-05
6.55351e-06
7.35863e-05
1.78619e-05
6.72114e-06
6.82083e-05
1.59529e-05
6.80338e-06
6.28085e-05
1.42507e-05
6.79433e-06
5.74677e-05
1.27364e-05
6.69376e-06
5.22613e-05
1.13923e-05
6.50734e-06
4.72546e-05
1.02015e-05
6.24568e-06
4.25005e-05
9.14819e-06
5.92279e-06
3.80378e-05
8.21755e-06
5.55457e-06
3.38915e-05
7.39598e-06
5.15715e-06
3.00736e-05
6.67103e-06
4.74565e-06
2.65849e-05
6.03147e-06
4.33328e-06
2.34172e-05
5.46734e-06
3.93085e-06
2.05555e-05
4.96984e-06
3.54666e-06
1.79799e-05
4.53131e-06
3.18666e-06
1.56675e-05
4.14512e-06
2.85472e-06
1.3594e-05
3.80559e-06
2.55298e-06
1.17342e-05
3.50787e-06
2.28224e-06
1.00635e-05
3.24786e-06
2.04234e-06
8.55787e-06
3.0221e-06
1.83247e-06
7.19431e-06
2.82769e-06
1.65147e-06
5.95082e-06
2.66224e-06
1.49815e-06
4.80597e-06
2.52378e-06
1.37165e-06
3.73786e-06
2.41074e-06
1.27218e-06
2.72247e-06
2.3219e-06
1.20165e-06
1.73946e-06
2.25642e-06
1.15614e-06
8.19843e-07
2.21411e-06
1.08413e-06
2.18429e-06
9.79367e-07
1.66088e-05
0.000139613
2.41169e-06
3.35508e-05
0.000138199
1.71903e-06
4.94759e-05
0.000133714
1.35131e-06
6.33789e-05
0.00012735
1.4308e-06
7.49414e-05
0.000119627
1.6013e-06
8.42525e-05
0.000111141
1.74088e-06
9.15401e-05
0.00010238
1.87229e-06
9.70781e-05
9.36989e-05
2.01403e-06
0.000101135
8.53353e-05
2.17534e-06
0.000103944
7.74305e-05
2.36152e-06
0.0001057
7.00568e-05
2.57577e-06
0.000106555
6.32401e-05
2.81986e-06
0.000106623
5.6977e-05
3.09437e-06
0.000105992
5.12467e-05
3.39868e-06
0.000104727
4.6019e-05
3.73072e-06
0.000102876
4.12597e-05
4.08669e-06
0.000100479
3.69339e-05
4.46075e-06
9.75688e-05
3.30078e-05
4.84473e-06
9.41809e-05
2.94499e-05
5.22806e-06
9.03527e-05
2.62315e-05
5.59786e-06
8.6129e-05
2.33265e-05
5.93941e-06
8.1564e-05
2.07116e-05