/*--------------------------------*- C++ -*----------------------------------*\
  =========                 |
  \\      /  F ield         | OpenFOAM: The Open Source CFD Toolbox
   \\    /   O peration     | Website:  https://openfoam.org
    \\  /    A nd           | Version:  12
     \\/     M anipulation  |
\*---------------------------------------------------------------------------*/
/*   Windows 32 and 64 bit porting by blueCAPE: http://www.bluecape.com.pt   *\
|  Based on Windows porting (2.0.x v4) by Symscape: http://www.symscape.com   |
\*---------------------------------------------------------------------------*/
FoamFile
{
    format      ascii;
    class       volVectorField;
    location    "1";
    object      U;
}
// * * * * * * * * * * * * * * * * * * * * * * * * * * * * * * * * * * * * * //

dimensions      [0 1 -1 0 0 0 0];

internalField   nonuniform List<vector> 
34500
(
(0.0292732 -0.0028526 4.29101e-06)
(0.0299772 -7.989e-05 2.20424e-05)
(0.0292774 0.000348908 4.58469e-05)
(0.0283818 0.000427736 6.41426e-05)
(0.0273821 0.000476459 7.85791e-05)
(0.0262849 0.000504178 9.04148e-05)
(0.0251337 0.000511894 0.000100406)
(0.0239658 0.000504551 0.000108889)
(0.0228105 0.000486037 0.000116304)
(0.0216853 0.000460336 0.000123173)
(0.0206008 0.000430839 0.000129753)
(0.0195614 0.000400139 0.000136266)
(0.0185676 0.000369831 0.000142864)
(0.0176172 0.000340976 0.000149631)
(0.0167062 0.00031418 0.000156583)
(0.0158303 0.000289719 0.000163673)
(0.0149847 0.000267692 0.000170797)
(0.014165 0.000247977 0.000177802)
(0.0133674 0.000230333 0.000184498)
(0.012589 0.000214566 0.000190666)
(0.0118278 0.000200429 0.000196075)
(0.0110825 0.000187643 0.000200493)
(0.010353 0.000175942 0.000203706)
(0.00964001 0.000165091 0.000205534)
(0.00894485 0.000154889 0.000205844)
(0.00826947 0.00014518 0.000204561)
(0.00761614 0.00013585 0.000201676)
(0.00698724 0.0001268 0.00019727)
(0.00638519 0.00011797 0.000191453)
(0.00581216 0.000109375 0.000184379)
(0.00526991 0.000101025 0.000176232)
(0.00475977 9.29436e-05 0.000167243)
(0.00428252 8.51796e-05 0.000157653)
(0.00383842 7.77691e-05 0.0001477)
(0.00342717 7.07628e-05 0.000137614)
(0.00304802 6.41929e-05 0.000127594)
(0.00269976 5.80922e-05 0.000117822)
(0.00238084 5.24784e-05 0.00010845)
(0.00208942 4.73629e-05 9.96017e-05)
(0.00182346 4.27494e-05 9.137e-05)
(0.00158077 3.86331e-05 8.3823e-05)
(0.00135904 3.50044e-05 7.70076e-05)
(0.00115596 3.18502e-05 7.09538e-05)
(0.000969145 2.91571e-05 6.56799e-05)
(0.00079623 2.69123e-05 6.11977e-05)
(0.000634827 2.51036e-05 5.75434e-05)
(0.000482568 2.3699e-05 5.4736e-05)
(0.000337315 2.2542e-05 5.26811e-05)
(0.000196969 2.1178e-05 5.06908e-05)
(6.79205e-05 1.95532e-05 4.96922e-05)
(0.0308674 0.000320843 1.8933e-05)
(0.0298112 0.000727674 2.74858e-05)
(0.0293583 0.0010024 3.56083e-05)
(0.0285932 0.00124441 5.18994e-05)
(0.0275737 0.00140763 6.49758e-05)
(0.0264348 0.00149198 7.60667e-05)
(0.0252448 0.00151153 8.63137e-05)
(0.0240462 0.00148235 9.59632e-05)
(0.022869 0.0014213 0.000105157)
(0.0217291 0.00134153 0.000114158)
(0.0206354 0.00125259 0.000123072)
(0.0195909 0.0011611 0.000132012)
(0.0185946 0.00107164 0.000141059)
(0.0176433 0.000986965 0.000150244)
(0.0167325 0.000908606 0.000159552)
(0.0158572 0.000837226 0.000168916)
(0.0150122 0.000772855 0.000178216)
(0.014193 0.000715205 0.000187282)
(0.0133956 0.000663771 0.000195894)
(0.0126169 0.00061781 0.000203825)
(0.0118549 0.000576539 0.000210821)
(0.0111084 0.000539191 0.000216614)
(0.0103773 0.000505036 0.000220972)
(0.00966226 0.000473396 0.000223714)
(0.00896482 0.00044369 0.000224702)
(0.00828695 0.000415444 0.000223858)
(0.00763105 0.0003883 0.000221159)
(0.00699964 0.000362024 0.000216653)
(0.00639516 0.000336493 0.000210484)
(0.00581984 0.000311656 0.000202855)
(0.00527552 0.000287558 0.000194004)
(0.00476356 0.000264292 0.000184182)
(0.00428476 0.000241964 0.000173663)
(0.00383939 0.000220704 0.000162713)
(0.00342714 0.000200626 0.000151596)
(0.00304722 0.000181836 0.000140554)
(0.00269841 0.000164409 0.000129789)
(0.00237913 0.000148398 0.000119466)
(0.0020875 0.00013383 0.00010972)
(0.00182146 0.000120705 0.000100653)
(0.00157878 0.000109005 9.23405e-05)
(0.00135715 9.86984e-05 8.48343e-05)
(0.00115422 8.9744e-05 7.81705e-05)
(0.000967612 8.20976e-05 7.23721e-05)
(0.000794944 7.57153e-05 6.7464e-05)
(0.000633804 7.05476e-05 6.35114e-05)
(0.000481675 6.64914e-05 6.0696e-05)
(0.000335972 6.31924e-05 5.89787e-05)
(0.000194844 5.97849e-05 5.56993e-05)
(6.65548e-05 5.62982e-05 4.81703e-05)
(0.0309943 -0.000123604 1.73723e-05)
(0.0306735 0.000863487 2.41832e-05)
(0.0298909 0.00168391 3.65153e-05)
(0.0289094 0.00217735 4.80907e-05)
(0.0277498 0.00246894 5.82456e-05)
(0.0265043 0.00260309 6.78193e-05)
(0.0252354 0.0026196 7.73804e-05)
(0.0239833 0.00255442 8.69549e-05)
(0.0227717 0.00243712 9.6572e-05)
(0.0216129 0.00229039 0.000106274)
(0.0205115 0.00213047 0.000116084)
(0.0194669 0.00196849 0.000126034)
(0.0184753 0.00181161 0.000136149)
(0.0175317 0.00166413 0.000146431)
(0.0166301 0.0015283 0.00015684)
(0.0157643 0.00140499 0.000167291)
(0.0149288 0.00129413 0.000177649)
(0.0141183 0.00119505 0.000187731)
(0.0133288 0.00110671 0.000197318)
(0.0125571 0.00102788 0.000206154)
(0.0118009 0.00095721 0.000213967)
(0.0110593 0.000893381 0.000220484)
(0.010332 0.000835125 0.000225456)
(0.00962003 0.000781296 0.000228671)
(0.00892489 0.000730911 0.000229973)
(0.00824878 0.000683167 0.000229329)
(0.00759423 0.000637464 0.000226705)
(0.00696392 0.000593391 0.000222161)
(0.00636043 0.000550716 0.000215852)
(0.00578611 0.000509361 0.000207972)
(0.00524287 0.000469368 0.00019878)
(0.00473213 0.000430862 0.000188588)
(0.00425472 0.000394014 0.000177682)
(0.0038109 0.000359011 0.000166349)
(0.00340035 0.000326031 0.000154851)
(0.00302226 0.000295225 0.000143435)
(0.00267536 0.000266707 0.000132311)
(0.00235805 0.000240549 0.000121659)
(0.00206841 0.000216781 0.000111617)
(0.00180434 0.000195395 0.000102287)
(0.0015636 0.000176352 9.37459e-05)
(0.00134386 0.00015959 8.60447e-05)
(0.00114275 0.000145032 7.9217e-05)
(0.000957907 0.000132592 7.32898e-05)
(0.000786926 0.000122179 6.82997e-05)
(0.000627361 0.000113687 6.43562e-05)
(0.000476538 0.000106953 6.17194e-05)
(0.000331626 0.000101633 6.02343e-05)
(0.000191313 9.72532e-05 5.61466e-05)
(6.49974e-05 9.39323e-05 4.71962e-05)
(0.0320611 0.000138402 1.45654e-05)
(0.0315999 0.00155753 2.93699e-05)
(0.0306037 0.00262138 4.58489e-05)
(0.0293738 0.00330289 5.6533e-05)
(0.0279985 0.00368224 6.52737e-05)
(0.0265851 0.00382774 7.36548e-05)
(0.0251959 0.00380648 8.22544e-05)
(0.0238644 0.00367546 9.11494e-05)
(0.0226055 0.00347878 0.00010032)
(0.0214229 0.00324832 0.000109744)
(0.0203139 0.00300592 0.000119413)
(0.0192723 0.00276583 0.000129335)
(0.0182905 0.00253681 0.000139519)
(0.0173602 0.00232379 0.000149956)
(0.0164735 0.00212907 0.000160602)
(0.0156231 0.00195324 0.000171363)
(0.0148023 0.00179578 0.000182093)
(0.0140055 0.00165545 0.000192597)
(0.0132283 0.0015306 0.000202632)
(0.0124672 0.00141937 0.00021192)
(0.0117202 0.00131981 0.000220163)
(0.010986 0.00123003 0.000227062)
(0.0102648 0.00114822 0.000232338)
(0.00955759 0.00107277 0.000235756)
(0.00886615 0.0010023 0.000237145)
(0.0081929 0.000935691 0.000236422)
(0.00754061 0.000872084 0.00023361)
(0.00691215 0.000810904 0.000228774)
(0.00631034 0.000751817 0.00022206)
(0.00573766 0.000694702 0.000213714)
(0.00519616 0.000639596 0.000203997)
(0.00468732 0.000586652 0.000193222)
(0.00421203 0.000536089 0.000181734)
(0.00377053 0.000488147 0.000169832)
(0.0033625 0.00044305 0.000157805)
(0.00298707 0.000400991 0.000145899)
(0.00264295 0.000362108 0.000134332)
(0.00232847 0.000326486 0.000123287)
(0.00204166 0.000294153 0.000112903)
(0.0017804 0.000265086 0.000103281)
(0.0015424 0.000239222 9.44954e-05)
(0.00132532 0.000216467 8.65928e-05)
(0.00112677 0.000196704 7.96024e-05)
(0.000944367 0.000179806 7.35524e-05)
(0.000775707 0.000165634 6.84789e-05)
(0.000618307 0.00015404 6.45041e-05)
(0.00046942 0.000144842 6.1898e-05)
(0.00032618 0.000137804 6.04483e-05)
(0.000187609 0.000132747 5.62363e-05)
(6.35842e-05 0.000129346 4.7056e-05)
(0.033705 0.00024183 3.17561e-05)
(0.0329867 0.00240591 4.62737e-05)
(0.0315888 0.00385793 5.83055e-05)
(0.0299685 0.00470887 6.62193e-05)
(0.0282753 0.00511818 7.29265e-05)
(0.0266293 0.00521178 7.99663e-05)
(0.0250839 0.00509728 8.7759e-05)
(0.0236564 0.00485692 9.62002e-05)
(0.0223454 0.00454901 0.000105131)
(0.0211409 0.00421272 0.000114452)
(0.0200298 0.00387319 0.000124123)
(0.0189985 0.00354575 0.000134146)
(0.018034 0.00323907 0.00014453)
(0.0171247 0.0029575 0.000155269)
(0.0162602 0.00270251 0.000166315)
(0.0154316 0.00247383 0.000177567)
(0.0146315 0.00227003 0.000188869)
(0.0138537 0.00208906 0.000200003)
(0.0130932 0.00192849 0.000210701)
(0.0123467 0.00178573 0.000220653)
(0.011612 0.00165819 0.000229525)
(0.010888 0.00154336 0.000236978)
(0.0101751 0.00143891 0.000242698)
(0.00947443 0.00134276 0.000246415)
(0.00878809 0.00125313 0.000247935)
(0.00811882 0.00116859 0.000247149)
(0.00746968 0.00108805 0.000244085)
(0.00684386 0.00101076 0.000238842)
(0.00624442 0.000936278 0.000231583)
(0.00567405 0.000864445 0.000222555)
(0.00513497 0.000795288 0.000212082)
(0.00462876 0.000728977 0.000200498)
(0.00415634 0.000665767 0.000188187)
(0.00371797 0.000605935 0.000175471)
(0.00331329 0.000549745 0.000162671)
(0.0029414 0.000497414 0.000150048)
(0.00260093 0.000449098 0.000137829)
(0.00229016 0.000404883 0.000126203)
(0.00200706 0.000364789 0.00011531)
(0.00174946 0.000328775 0.000105251)
(0.00151502 0.000296749 9.60943e-05)
(0.00130137 0.000268584 8.78817e-05)
(0.00110612 0.000244126 8.06372e-05)
(0.000926861 0.000223207 7.43834e-05)
(0.00076118 0.000205651 6.91527e-05)
(0.000606585 0.000191277 6.50655e-05)
(0.000460315 0.000179904 6.23818e-05)
(0.000319546 0.000171359 6.08654e-05)
(0.000183487 0.000165551 5.65722e-05)
(6.21192e-05 0.000161818 4.73059e-05)
(0.0363373 0.000491997 6.55012e-05)
(0.0349551 0.00375092 7.39245e-05)
(0.0328428 0.00560697 7.14441e-05)
(0.0306309 0.00653753 7.35182e-05)
(0.0285012 0.00686313 7.72691e-05)
(0.026564 0.006801 8.28954e-05)
(0.0248409 0.00651147 9.02163e-05)
(0.023316 0.00610269 9.86458e-05)
(0.0219613 0.0056433 0.000107764)
(0.0207471 0.00517504 0.000117367)
(0.019647 0.00472211 0.000127385)
(0.0186382 0.00429769 0.000137828)
(0.0177023 0.00390809 0.000148719)
(0.0168237 0.00355544 0.000160059)
(0.0159899 0.00323936 0.000171803)
(0.0151906 0.00295796 0.000183844)
(0.0144175 0.00270853 0.000196011)
(0.013664 0.00248789 0.000208067)
(0.012925 0.00229268 0.000219713)
(0.012197 0.00211952 0.000230601)
(0.0114778 0.00196511 0.000240353)
(0.0107667 0.00182632 0.000248586)
(0.0100642 0.00170032 0.000254937)
(0.00937182 0.00158456 0.000259099)
(0.00869199 0.00147689 0.000260846)
(0.00802782 0.00137558 0.000260052)
(0.00738277 0.0012793 0.00025673)
(0.00676038 0.00118716 0.000251018)
(0.00616403 0.0010986 0.000243111)
(0.00559667 0.00101341 0.000233288)
(0.00506069 0.000931588 0.000221911)
(0.00455781 0.000853321 0.000209359)
(0.004089 0.000778876 0.000196056)
(0.00365452 0.00070855 0.000182366)
(0.00325399 0.000642625 0.000168633)
(0.00288644 0.000581328 0.000155144)
(0.00255043 0.000524815 0.000142138)
(0.00224417 0.000473165 0.00012981)
(0.00196556 0.00042638 0.000118304)
(0.00171237 0.000384393 0.000107717)
(0.00148222 0.000347082 9.81123e-05)
(0.0012727 0.000314286 8.95239e-05)
(0.0010814 0.000285815 8.19708e-05)
(0.000905896 0.000261465 7.5466e-05)
(0.000743782 0.000241028 7.00364e-05)
(0.000592564 0.000224303 6.57958e-05)
(0.000449506 0.000211104 6.2992e-05)
(0.000311837 0.000201282 6.13826e-05)
(0.00017887 0.000194755 5.7036e-05)
(6.05233e-05 0.000190617 4.77391e-05)
(0.0407652 0.00117206 0.000129902)
(0.0376621 0.00603722 0.000117271)
(0.0342904 0.00816346 8.15763e-05)
(0.0312203 0.0089606 7.6049e-05)
(0.0285382 0.00900038 7.76535e-05)
(0.0262772 0.00862366 8.28695e-05)
(0.0243853 0.0080487 9.05991e-05)
(0.022788 0.00740006 9.96501e-05)
(0.0214176 0.00674513 0.000109372)
(0.0202196 0.00611878 0.000119528)
(0.0191524 0.00553772 0.000130098)
(0.0181845 0.0050086 0.000141138)
(0.0172918 0.00453258 0.000152705)
(0.0164559 0.00410783 0.000164816)
(0.0156627 0.003731 0.000177433)
(0.0149008 0.00339796 0.000190446)
(0.0141614 0.00310428 0.00020367)
(0.0134378 0.00284546 0.000216842)
(0.0127248 0.00261709 0.000229631)
(0.0120191 0.00241493 0.000241646)
(0.0113188 0.00223497 0.00025246)
(0.0106232 0.00207351 0.000261634)
(0.00993331 0.0019272 0.000268753)
(0.00925097 0.00179308 0.000273462)
(0.00857909 0.00166865 0.000275499)
(0.0079212 0.0015519 0.000274719)
(0.00728123 0.00144129 0.000271123)
(0.00666313 0.00133576 0.000264881)
(0.00607064 0.00123467 0.000256227)
(0.00550702 0.00113773 0.000245504)
(0.00497487 0.00104491 0.00023309)
(0.00447604 0.000956368 0.000219432)
(0.00401156 0.000872371 0.000204994)
(0.00358171 0.000793215 0.000190192)
(0.00318607 0.000719173 0.000175398)
(0.00282359 0.000650462 0.000160925)
(0.00249277 0.000587222 0.000147026)
(0.00219173 0.000529508 0.000133903)
(0.00191829 0.000477295 0.000121703)
(0.00167016 0.000430486 0.00011052)
(0.00144492 0.000388925 0.00010041)
(0.00124011 0.000352416 9.13989e-05)
(0.0010533 0.000320736 8.34976e-05)
(0.000882077 0.00029365 7.67084e-05)
(0.000724021 0.000270923 7.10524e-05)
(0.000576662 0.000252336 6.66333e-05)
(0.000437298 0.000237695 6.36871e-05)
(0.000303209 0.000226853 6.19723e-05)
(0.000173775 0.000219714 5.75807e-05)
(5.87798e-05 0.000215194 4.82679e-05)
(0.0486621 0.00367963 0.000219255)
(0.0411635 0.0105266 0.000186863)
(0.0356604 0.0120758 8.42023e-05)
(0.031462 0.0121938 7.00027e-05)
(0.0281629 0.0115826 7.28987e-05)
(0.0256113 0.0106617 8.01627e-05)
(0.0236167 0.00966876 8.97402e-05)
(0.0220122 0.0087072 0.000100115)
(0.0206799 0.00781805 0.000110722)
(0.0195397 0.00701434 0.000121547)
(0.0185368 0.00629661 0.00013273)
(0.0176331 0.00566008 0.000144419)
(0.0168015 0.00509795 0.000156722)
(0.0160221 0.00460291 0.00016968)
(0.01528 0.00416774 0.00018326)
(0.0145639 0.00378562 0.000197349)
(0.013865 0.00345015 0.000211743)
(0.0131768 0.00315542 0.000226156)
(0.0124944 0.00289592 0.000240217)
(0.0118148 0.00266659 0.00025349)
(0.0111363 0.00246274 0.000265491)
(0.0104589 0.00228014 0.000275721)
(0.00978374 0.00211497 0.000283706)
(0.00911324 0.00196393 0.000289035)
(0.00845079 0.00182421 0.000291404)
(0.00780043 0.00169354 0.000290648)
(0.0071666 0.0015702 0.000286761)
(0.00655373 0.00145298 0.000279936)
(0.00596597 0.00134113 0.000270459)
(0.00540688 0.00123429 0.000258738)
(0.00487932 0.00113236 0.000245183)
(0.00438526 0.00103548 0.000230314)
(0.00392584 0.000943857 0.000214638)
(0.00350132 0.000857767 0.000198623)
(0.00311123 0.000777448 0.000182674)
(0.00275449 0.000703082 0.000167132)
(0.00242948 0.000634773 0.000152266)
(0.00213424 0.00057254 0.000138288)
(0.00186655 0.00051632 0.000125342)
(0.001624 0.000465977 0.000113519)
(0.00140415 0.000421322 0.000102868)
(0.00120452 0.000382124 9.34044e-05)
(0.00102264 0.000348129 8.51306e-05)
(0.000856086 0.000319076 7.80377e-05)
(0.000702471 0.00029471 7.21396e-05)
(0.000559338 0.000274794 6.75281e-05)
(0.000424027 0.000259125 6.44281e-05)
(0.000293869 0.00024755 6.26013e-05)
(0.000168289 0.000239959 5.81672e-05)
(5.69094e-05 0.000235141 4.88439e-05)
(0.0640375 0.00996421 0.000105826)
(0.0452236 0.0171838 0.000195788)
(0.0358181 0.0172279 4.23023e-05)
(0.0307151 0.0161655 4.07932e-05)
(0.0270024 0.0144944 6.22255e-05)
(0.0243616 0.0127935 7.6701e-05)
(0.0224302 0.0112686 8.92621e-05)
(0.0209372 0.00994491 0.000101084)
(0.0197248 0.00880398 0.00011244)
(0.0186983 0.00781989 0.000123773)
(0.0177982 0.00696868 0.000135454)
(0.0169859 0.0062302 0.000147729)
(0.0162346 0.00558792 0.000160744)
(0.0155257 0.00502826 0.000174553)
(0.0148454 0.00453985 0.000189123)
(0.0141832 0.00411307 0.000204328)
(0.0135312 0.00373961 0.000219948)
(0.0128835 0.00341217 0.000235664)
(0.012236 0.00312426 0.000251069)
(0.0115859 0.00287005 0.000265675)
(0.0109323 0.00264433 0.000278939)
(0.0102754 0.00244238 0.000290297)
(0.00961707 0.00226005 0.000299208)
(0.00896018 0.00209373 0.000305202)
(0.00830867 0.00194035 0.000307932)
(0.00766717 0.00179747 0.000307207)
(0.00704064 0.00166319 0.000303019)
(0.00643404 0.00153616 0.000295574)
(0.00585192 0.00141553 0.000285228)
(0.00529823 0.00130083 0.000272439)
(0.00477605 0.00119192 0.000257691)
(0.00428752 0.00108882 0.000241545)
(0.00383385 0.000991694 0.000224573)
(0.0034153 0.00090075 0.000207292)
(0.00303138 0.000816162 0.000190139)
(0.00268092 0.000738054 0.000173486)
(0.00236224 0.000666473 0.000157621)
(0.00207328 0.000601387 0.00014276)
(0.00181174 0.000542685 0.000129047)
(0.00157517 0.00049019 0.000116569)
(0.00136107 0.000443675 0.000105364)
(0.00116692 0.000402878 9.54398e-05)
(0.000990259 0.000367519 8.67867e-05)
(0.000828661 0.000337314 7.93845e-05)
(0.000679742 0.000311993 7.32402e-05)
(0.00054108 0.000291307 6.84329e-05)
(0.000410059 0.000275045 6.51757e-05)
(0.000284057 0.000263047 6.32349e-05)
(0.000162539 0.000255195 5.8761e-05)
(5.49519e-05 0.000250187 4.94318e-05)
(0.0886277 0.0290607 0.000360772)
(0.0504753 0.0359357 0.000943402)
(0.0344779 0.0278893 0.000271608)
(0.0287027 0.0216154 6.21728e-05)
(0.0247784 0.0176138 6.63089e-05)
(0.022383 0.0148024 7.97384e-05)
(0.0207682 0.0126784 9.2235e-05)
(0.0195479 0.0109981 0.000103927)
(0.0185552 0.00962774 0.000115102)
(0.0177046 0.00848619 0.000126414)
(0.0169472 0.00752104 0.000138298)
(0.0162525 0.00669641 0.000150996)
(0.0155996 0.00598658 0.000164634)
(0.0149741 0.00537231 0.000179245)
(0.0143649 0.00483865 0.000194776)
(0.0137637 0.00437362 0.000211084)
(0.0131641 0.00396731 0.000227924)
(0.0125614 0.00361131 0.000244948)
(0.0119523 0.00329837 0.000261705)
(0.0113349 0.00302211 0.000277659)
(0.0107086 0.00277688 0.000292205)
(0.0100746 0.00255767 0.000304711)
(0.00943506 0.00236008 0.00031457)
(0.00879352 0.00218029 0.000321248)
(0.00815451 0.00201508 0.000324349)
(0.00752325 0.00186185 0.000323658)
(0.00690527 0.00171856 0.000319166)
(0.00630605 0.00158377 0.000311097)
(0.00573062 0.00145649 0.000299871)
(0.00518324 0.00133616 0.000286001)
(0.00466728 0.0012225 0.000270049)
(0.00418503 0.00111546 0.000252621)
(0.00373777 0.00101509 0.000234351)
(0.00332578 0.000921484 0.000215802)
(0.00294854 0.000834738 0.000197448)
(0.0026048 0.000754888 0.000179693)
(0.00229282 0.000681906 0.00016284)
(0.00201046 0.000615694 0.00014711)
(0.00175536 0.000556086 0.000132645)
(0.001525 0.00050286 0.000119525)
(0.00131685 0.000455752 0.00010778)
(0.00112836 0.000414471 9.74071e-05)
(0.000957076 0.000378716 8.83853e-05)
(0.000800565 0.00034819 8.06826e-05)
(0.000656466 0.000322608 7.42997e-05)
(0.000522392 0.000301718 6.93025e-05)
(0.000395772 0.000285303 6.5892e-05)
(0.000274031 0.000273201 6.38409e-05)
(0.000156671 0.00026529 5.93311e-05)
(5.29549e-05 0.000260215 5.00018e-05)
(0.0270791 0.0502877 0.000631959)
(0.0128963 0.0433391 0.000740608)
(0.0196685 0.0326749 9.97256e-05)
(0.0208988 0.0245404 8.18168e-05)
(0.0202923 0.0194706 9.96541e-05)
(0.0194456 0.0160774 9.93748e-05)
(0.0186306 0.0136154 0.000102761)
(0.0178881 0.0117233 0.00010983)
(0.0172135 0.0102103 0.00011889)
(0.0165919 0.00896652 0.000129367)
(0.0160087 0.00792448 0.000141091)
(0.0154516 0.00703959 0.000154029)
(0.0149106 0.00628092 0.000168178)
(0.0143779 0.00562595 0.000183508)
(0.0138468 0.00505759 0.000199932)
(0.0133119 0.00456243 0.000217277)
(0.0127689 0.00412961 0.000235274)
(0.0122146 0.00375007 0.000253544)
(0.0116468 0.00341611 0.000271597)
(0.0110644 0.00312104 0.000288846)
(0.0104678 0.00285902 0.000304629)
(0.0098586 0.00262489 0.000318248)
(0.00923967 0.00241414 0.000329027)
(0.00861516 0.00222287 0.000336372)
(0.00799021 0.00204779 0.000339839)
(0.00737064 0.00188619 0.000339185)
(0.00676255 0.00173597 0.000334401)
(0.00617194 0.00159556 0.000325734)
(0.00560429 0.00146386 0.000313662)
(0.00506422 0.00134019 0.000298754)
(0.00455533 0.00122413 0.000281646)
(0.0040801 0.00111548 0.000262998)
(0.00363987 0.00101416 0.000243488)
(0.00323495 0.000920126 0.000223736)
(0.00286479 0.000833356 0.000204246)
(0.0025281 0.000753775 0.000185453)
(0.00222305 0.000681263 0.000167672)
(0.00194746 0.000615646 0.000151128)
(0.00169891 0.000556696 0.000135962)
(0.00147484 0.000504143 0.000122246)
(0.00127268 0.00045769 0.000109999)
(0.00108989 0.000417021 9.92116e-05)
(0.000923982 0.000381821 8.98494e-05)
(0.000772557 0.000351782 8.18696e-05)
(0.000633273 0.000326618 7.52667e-05)
(0.000503777 0.000306074 7.00945e-05)
(0.000381546 0.000289937 6.6542e-05)
(0.000264054 0.000278043 6.43882e-05)
(0.000150836 0.000270277 5.98492e-05)
(5.09692e-05 0.000265259 5.05271e-05)
(0.00292935 0.0264225 0.000624822)
(0.00531413 0.0335034 0.000539311)
(0.0123078 0.0286122 0.000178344)
(0.0152087 0.0233612 0.000113421)
(0.0162665 0.0193522 0.000109288)
(0.0165237 0.0162992 0.000107081)
(0.0164149 0.0139283 0.000108628)
(0.0161437 0.0120423 0.00011386)
(0.015799 0.0105075 0.000121781)
(0.0154192 0.00923432 0.000131728)
(0.0150206 0.0081621 0.000143356)
(0.0146091 0.00724859 0.00015651)
(0.0141861 0.00646342 0.000171107)
(0.0137508 0.00578402 0.000187073)
(0.0133014 0.00519313 0.000204288)
(0.0128357 0.00467712 0.000222559)
(0.0123518 0.00422498 0.000241592)
(0.0118479 0.00382754 0.000260981)
(0.0113233 0.00347704 0.000280202)
(0.0107778 0.00316681 0.000298623)
(0.0102125 0.00289101 0.000315528)
(0.00962972 0.00264453 0.00033016)
(0.00903303 0.00242292 0.00034178)
(0.00842715 0.00222231 0.000349738)
(0.00781781 0.00203942 0.000353542)
(0.00721142 0.00187153 0.000352926)
(0.00661463 0.0017165 0.000347881)
(0.00603393 0.00157267 0.00033868)
(0.00547523 0.00143881 0.000325847)
(0.00494349 0.0013141 0.000310007)
(0.00444255 0.00119796 0.000291862)
(0.00397505 0.00109001 0.000272121)
(0.00354241 0.000989987 0.000251511)
(0.00314499 0.000897703 0.000230679)
(0.00278219 0.000812972 0.00021018)
(0.00245272 0.000735595 0.000190469)
(0.0021547 0.000665347 0.000171871)
(0.0018859 0.000601964 0.000154613)
(0.00164386 0.000545156 0.000138833)
(0.001426 0.000494607 0.000124596)
(0.00122973 0.000449986 0.000111913)
(0.0010525 0.000410962 0.000100765)
(0.000891841 0.000377208 9.1107e-05)
(0.000745366 0.000348416 8.28877e-05)
(0.000610762 0.000324303 7.60942e-05)
(0.000485713 0.000304622 7.07701e-05)
(0.000367746 0.000289165 6.70934e-05)
(0.000254378 0.000277774 6.48494e-05)
(0.000145181 0.000270344 6.02898e-05)
(4.90426e-05 0.000265494 5.09826e-05)
(0.00146155 0.0244327 0.000384362)
(0.00470294 0.0264549 0.000276753)
(0.00905466 0.0241304 0.000128257)
(0.0116992 0.0211212 9.78181e-05)
(0.0132273 0.018277 0.000101121)
(0.0140214 0.0158093 0.000104628)
(0.0143745 0.0137323 0.000108745)
(0.014468 0.0119935 0.000114803)
(0.014406 0.0105314 0.000122926)
(0.0142469 0.00929239 0.000132953)
(0.0140233 0.00823377 0.000144732)
(0.0137531 0.00732255 0.000158163)
(0.0134462 0.00653329 0.000173175)
(0.0131077 0.0058461 0.000189684)
(0.01274 0.00524528 0.000207563)
(0.0123438 0.00471812 0.000226604)
(0.0119194 0.00425422 0.000246498)
(0.0114667 0.00384487 0.000266816)
(0.0109861 0.00348264 0.000287008)
(0.0104784 0.00316114 0.000306405)
(0.00994555 0.0028748 0.000324247)
(0.00939051 0.00261876 0.000339727)
(0.00881744 0.00238874 0.000352054)
(0.00823165 0.00218104 0.000360529)
(0.00763943 0.0019925 0.000364622)
(0.00704772 0.00182046 0.000364046)
(0.00646368 0.00166276 0.00035879)
(0.00589425 0.00151767 0.000349154)
(0.00534571 0.00138386 0.000335697)
(0.00482334 0.00126033 0.000319103)
(0.00433122 0.00114631 0.000300103)
(0.00387212 0.00104123 0.000279471)
(0.00344756 0.000944617 0.000257957)
(0.00305794 0.000856092 0.000236243)
(0.00270269 0.0007753 0.000214925)
(0.00238048 0.000701898 0.000194471)
(0.00208943 0.000635543 0.000175214)
(0.00182728 0.000575882 0.000157381)
(0.00159156 0.000522557 0.000141109)
(0.00137968 0.000475207 0.000126455)
(0.00118904 0.000433476 0.000113425)
(0.00101712 0.000397019 0.000101989)
(0.00086144 0.000365508 9.20957e-05)
(0.000719657 0.000338642 8.36865e-05)
(0.000589482 0.000316147 7.67415e-05)
(0.00046864 0.000297787 7.12961e-05)
(0.000354703 0.000283368 6.75186e-05)
(0.000245237 0.000272744 6.52009e-05)
(0.00013984 0.000265821 6.06312e-05)
(4.72281e-05 0.000261256 5.13493e-05)
(0.00136568 0.0219998 0.000231264)
(0.00404669 0.0221913 0.000149826)
(0.00710756 0.0208282 8.32071e-05)
(0.0093807 0.0189145 7.99084e-05)
(0.0109626 0.0168748 9.12586e-05)
(0.011982 0.0149385 9.93213e-05)
(0.0126005 0.0131952 0.000106165)
(0.0129437 0.0116622 0.000113686)
(0.0130984 0.0103264 0.000122558)
(0.013122 0.00916473 0.000133006)
(0.0130511 0.00815314 0.000145097)
(0.0129089 0.00726984 0.000158839)
(0.0127099 0.00649613 0.000174211)
(0.012463 0.00581636 0.00019115)
(0.0121735 0.00521748 0.000209531)
(0.0118448 0.00468857 0.000229144)
(0.0114786 0.00422042 0.000249671)
(0.0110764 0.00380519 0.000270671)
(0.0106396 0.00343615 0.000291574)
(0.01017 0.00310746 0.000311686)
(0.00967013 0.00281402 0.000330215)
(0.00914367 0.00255134 0.000346319)
(0.00859532 0.00231551 0.000359168)
(0.00803091 0.00210309 0.000368028)
(0.00745723 0.00191112 0.000372341)
(0.00688167 0.00173706 0.000371803)
(0.00631183 0.00157878 0.000366405)
(0.00575503 0.00143451 0.00035647)
(0.00521788 0.00130281 0.000342582)
(0.00470592 0.00118249 0.000325454)
(0.00422343 0.00107259 0.00030586)
(0.00377334 0.00097231 0.000284597)
(0.00335727 0.00088096 0.000262437)
(0.00297567 0.000797948 0.000240101)
(0.00262801 0.000722738 0.000218208)
(0.00231297 0.000654832 0.000197233)
(0.00202869 0.000593764 0.000177515)
(0.00177292 0.000539088 0.000159283)
(0.00154319 0.000490381 0.000142669)
(0.00133692 0.000447242 0.000127727)
(0.00115155 0.000409291 0.000114455)
(0.000984537 0.000376178 0.000102822)
(0.000833467 0.00034758 9.27654e-05)
(0.000696008 0.000323208 8.42256e-05)
(0.00056991 0.000302804 7.71759e-05)
(0.000452936 0.000286152 7.16458e-05)
(0.000342707 0.000273072 6.77957e-05)
(0.00023683 0.000263435 6.5424e-05)
(0.000134932 0.000257164 6.08565e-05)
(4.55571e-05 0.000252967 5.16127e-05)
(0.00120326 0.0193013 0.000161732)
(0.00341869 0.0191533 0.000104276)
(0.00580436 0.0182274 6.52291e-05)
(0.007754 0.0169066 7.0716e-05)
(0.00925684 0.015406 8.44508e-05)
(0.0103447 0.013891 9.44581e-05)
(0.0110997 0.0124535 0.00010293)
(0.0116001 0.0111344 0.000111581)
(0.0119091 0.00994594 0.00012117)
(0.0120741 0.008885 0.000132076)
(0.0121287 0.007942 0.000144488)
(0.0120963 0.00710509 0.000158499)
(0.0119929 0.00636234 0.000174132)
(0.0118292 0.00570266 0.000191349)
(0.0116123 0.00511613 0.000210038)
(0.0113468 0.004594 0.000229989)
(0.0110361 0.00412864 0.000250884)
(0.0106825 0.0037134 0.000272275)
(0.0102884 0.00334245 0.000293581)
(0.00985629 0.00301071 0.000314096)
(0.00938946 0.00271369 0.000333012)
(0.00889202 0.00244746 0.000349467)
(0.0083692 0.00220852 0.000362613)
(0.00782726 0.00199382 0.000371696)
(0.0072734 0.00180066 0.000376143)
(0.00671538 0.00162667 0.000375644)
(0.00616113 0.00146981 0.000370186)
(0.00561828 0.00132828 0.000360115)
(0.00509369 0.00120052 0.000346023)
(0.00459312 0.00108519 0.000328627)
(0.00412103 0.000981102 0.000308743)
(0.00368048 0.000887227 0.000287162)
(0.0032732 0.000802652 0.000264669)
(0.00289972 0.000726566 0.000242014)
(0.00255958 0.000658245 0.00021983)
(0.00225151 0.000597035 0.000198592)
(0.00197369 0.000542345 0.000178642)
(0.0017239 0.000493638 0.00016021)
(0.00149972 0.00045043 0.000143426)
(0.00129859 0.000412282 0.00012834)
(0.00111798 0.000378799 0.00011495)
(0.00095541 0.00034963 0.000103218)
(0.000808474 0.000324461 9.30811e-05)
(0.000674884 0.00030302 8.44768e-05)
(0.000552429 0.000285074 7.73746e-05)
(0.000438909 0.000270425 7.1801e-05)
(0.000331991 0.000258918 6.79097e-05)
(0.000229321 0.000250438 6.55061e-05)
(0.00013055 0.000244931 6.09536e-05)
(4.40655e-05 0.000241174 5.17578e-05)
(0.00103036 0.0169311 0.000128538)
(0.00290175 0.0167448 8.58432e-05)
(0.00486966 0.0160693 5.89719e-05)
(0.00656198 0.0151072 6.67429e-05)
(0.00795014 0.0139741 8.03101e-05)
(0.0090315 0.0127802 9.07074e-05)
(0.00984515 0.0116008 9.98367e-05)
(0.0104369 0.01048 0.000109097)
(0.0108495 0.0094397 0.000119151)
(0.0111184 0.00848803 0.000130379)
(0.0112714 0.00762493 0.000143012)
(0.0113294 0.00684607 0.000157178)
(0.0113076 0.00614518 0.000172929)
(0.0112169 0.00551534 0.000190245)
(0.011065 0.00494967 0.000209021)
(0.0108574 0.0044417 0.000229054)
(0.0105981 0.00398551 0.000250025)
(0.0102903 0.00357574 0.000271489)
(0.00993695 0.00320763 0.000292863)
(0.00954125 0.00287696 0.000313441)
(0.0091069 0.00257996 0.000332416)
(0.00863852 0.00231332 0.000348925)
(0.00814169 0.00207407 0.00036212)
(0.00762306 0.00185957 0.000371246)
(0.0070901 0.00166746 0.000375734)
(0.00655084 0.00149559 0.000375271)
(0.00601345 0.00134199 0.000369846)
(0.00548575 0.00120489 0.000359815)
(0.00497479 0.00108264 0.000345762)
(0.0044865 0.000973732 0.000328403)
(0.00402547 0.000876777 0.00030855)
(0.00359489 0.000790523 0.000286984)
(0.00319661 0.000713833 0.000264501)
(0.00283127 0.000645684 0.000241859)
(0.00249848 0.00058517 0.000219689)
(0.00219708 0.000531484 0.000198463)
(0.0019253 0.000483916 0.000178527)
(0.00168101 0.000441844 0.000160108)
(0.00146184 0.000404727 0.000143336)
(0.0012653 0.000372093 0.000128261)
(0.0010889 0.000343536 0.00011488)
(0.000930202 0.000318709 0.000103156)
(0.000786861 0.000297314 9.30249e-05)
(0.000656623 0.000279098 8.44256e-05)
(0.000537317 0.000263853 7.73263e-05)
(0.000426782 0.000251407 7.17523e-05)
(0.000322724 0.000241628 6.78531e-05)
(0.000222829 0.000234421 6.54407e-05)
(0.000126766 0.000229752 6.0917e-05)
(4.27766e-05 0.000226485 5.17803e-05)
(0.000883173 0.0148903 0.000110558)
(0.00249103 0.0147293 7.72024e-05)
(0.00417028 0.0142181 5.71e-05)
(0.00565953 0.0134913 6.51869e-05)
(0.00693158 0.0126159 7.77833e-05)
(0.00797289 0.0116655 8.78497e-05)
(0.00880043 0.0106972 9.7042e-05)
(0.00943961 0.00975008 0.000106493)
(0.00991764 0.00884843 0.000116733)
(0.0102596 0.0080052 0.000128093)
(0.010487 0.00722585 0.00014079)
(0.0106168 0.00651114 0.000154958)